# vtk DataFile Version 4.2
vtk output
ASCII
DATASET POLYDATA
POINTS 9337 float
0.0450556 0 1.44 -0.11815 0.38185 1.44 0.800807 0.949193 1.44 
0.3116 0.931902 1.44 -0.236581 0.923893 1.44 -0.780719 0.91881 1.44 
-1.31889 0.931105 1.44 1.61183 50 1.44 1.61286 49.4999 1.44 
1.61352 48.9998 1.44 1.61403 48.4997 1.44 1.61439 47.9995 1.44 
1.61454 47.4994 1.44 1.61458 46.9993 1.44 1.61454 46.4992 1.44 
1.61437 45.9991 1.44 1.61445 45.499 1.44 1.6149 44.9989 1.44 
1.61555 44.4987 1.44 1.61635 43.9986 1.44 1.61734 43.4985 1.44 
1.61832 42.9984 1.44 1.6193 42.4983 1.44 1.62031 41.9982 1.44 
1.62125 41.4981 1.44 1.62209 40.9979 1.44 1.62308 40.4978 1.44 
1.62414 39.9977 1.44 1.6252 39.4976 1.44 1.62633 38.9975 1.44 
1.62756 38.4974 1.44 1.62869 37.9973 1.44 1.62983 37.4972 1.44 
1.63091 36.997 1.44 1.632 36.4969 1.44 1.63314 35.9968 1.44 
1.63355 35.4967 1.44 1.63354 34.9966 1.44 1.63236 34.4965 1.44 
1.62963 33.9964 1.44 1.62554 33.4963 1.44 1.61931 32.9962 1.44 
1.61155 32.4961 1.44 1.60063 31.9961 1.44 1.58509 31.4963 1.44 
1.56401 30.9966 1.44 1.53267 30.4975 1.44 1.48978 29.9992 1.44 
1.43333 29.5023 1.44 1.36164 29.0074 1.44 1.27407 28.515 1.44 
1.17908 28.024 1.44 1.08466 27.5329 1.44 0.998427 27.0403 1.44 
0.913069 26.5475 1.44 0.796908 26.0615 1.44 0.657338 25.5821 1.44 
0.586813 25.0879 1.44 0.565184 24.5883 1.44 0.556616 24.0883 1.44 
0.552972 23.5882 1.44 0.551362 23.088 1.44 0.550591 22.5879 1.44 
0.5505 22.0878 1.44 0.551282 21.5877 1.44 0.552541 21.0876 1.44 
0.554492 20.5875 1.44 0.556707 20.0874 1.44 0.558783 19.5873 1.44 
0.560568 19.0871 1.44 0.561991 18.587 1.44 0.56256 18.0869 1.44 
0.562627 17.5868 1.44 0.562224 17.0867 1.44 0.561059 16.5866 1.44 
0.559504 16.0865 1.44 0.557762 15.5863 1.44 0.55591 15.0862 1.44 
0.553877 14.5861 1.44 0.551745 14.086 1.44 0.549907 13.5859 1.44 
0.547034 13.0858 1.44 0.543417 12.5857 1.44 0.538772 12.0856 1.44 
0.532269 11.5855 1.44 0.524374 11.0855 1.44 0.515431 10.5854 1.44 
0.506103 10.0854 1.44 0.496361 9.5854 1.44 0.487544 9.08537 1.44 
0.480655 8.5853 1.44 0.475736 8.08521 1.44 0.474394 7.5851 1.44 
0.475134 7.08498 1.44 0.47528 6.58487 1.44 0.473161 6.08477 1.44 
0.453801 5.58511 1.44 0.405879 5.08746 1.44 0.306956 4.59807 1.44 
0.107946 4.14341 1.44 -0.0266487 3.66794 1.44 -0.0746849 3.17532 1.44 
0.0380188 26.212 1.44 0.0279704 26.7113 1.44 0.0266609 27.2189 1.44 
0.0448455 27.7261 1.44 0.141791 28.2242 1.44 0.329914 28.687 1.44 
0.413587 29.1876 1.44 0.461691 29.693 1.44 0.493165 30.1997 1.44 
0.513436 30.707 1.44 0.526705 31.2145 1.44 0.534535 31.7222 1.44 
0.539234 32.2299 1.44 0.541357 32.7376 1.44 0.543324 33.2453 1.44 
0.544843 33.753 1.44 0.545771 34.2607 1.44 0.546312 34.7684 1.44 
0.546069 35.2762 1.44 0.545556 35.7839 1.44 0.544681 36.2916 1.44 
0.54384 36.7993 1.44 0.543288 37.307 1.44 0.542713 37.8148 1.44 
0.542013 38.3225 1.44 0.541258 38.8302 1.44 0.540436 39.3379 1.44 
0.539567 39.8456 1.44 0.538772 40.3534 1.44 0.538157 40.8611 1.44 
0.537565 41.3688 1.44 0.536776 41.8765 1.44 0.535734 42.3842 1.44 
0.534601 42.8919 1.44 0.533574 43.3997 1.44 0.532458 43.9074 1.44 
0.531435 44.4151 1.44 0.530527 44.9228 1.44 0.529673 45.4305 1.44 
0.528915 45.9383 1.44 0.528359 46.446 1.44 0.527766 46.9537 1.44 
0.527125 47.4614 1.44 0.526267 47.9691 1.44 0.525012 48.4768 1.44 
0.523687 48.9846 1.44 0.522371 49.4923 1.44 0.52107 50 1.44 
1.25 1.917 1.44 0.965693 2.30646 1.44 0.937226 2.80617 1.44 
0.959417 3.30768 1.44 1.0982 3.79033 1.44 1.23823 4.27332 1.44 
1.31745 4.77018 1.44 1.38253 5.26945 1.44 1.42821 5.77083 1.44 
1.44138 6.27411 1.44 1.43006 6.77749 1.44 1.41655 7.28081 1.44 
1.4144 7.78432 1.44 1.42623 8.2877 1.44 1.44675 8.7908 1.44 
1.47101 9.29373 1.44 1.49771 9.79655 1.44 1.52378 10.2994 1.44 
1.54835 10.8023 1.44 1.57073 11.3053 1.44 1.59006 11.8085 1.44 
1.60643 12.3118 1.44 1.61934 12.8151 1.44 1.63031 13.3185 1.44 
1.6387 13.822 1.44 1.64557 14.3255 1.44 1.652 14.8289 1.44 
1.6574 15.3324 1.44 1.66262 15.8359 1.44 1.66736 16.3394 1.44 
1.67123 16.8429 1.44 1.67386 17.3465 1.44 1.67455 17.85 1.44 
1.67389 18.3535 1.44 1.67113 18.857 1.44 1.66703 19.3605 1.44 
1.66222 19.864 1.44 1.65712 20.3675 1.44 1.65246 20.871 1.44 
1.64912 21.3746 1.44 1.64691 21.8781 1.44 1.6463 22.3816 1.44 
1.64813 22.8851 1.44 1.65225 23.3886 1.44 1.66066 23.8921 1.44 
1.67657 24.3954 1.44 1.70369 24.8981 1.44 1.74873 25.3996 1.44 
1.81259 25.899 1.44 1.89006 26.3965 1.44 1.97482 26.8928 1.44 
2.06769 27.3877 1.44 2.16591 27.8816 1.44 2.26216 28.3758 1.44 
2.35465 28.8708 1.44 2.43707 29.3675 1.44 2.5055 29.8663 1.44 
2.56094 30.3667 1.44 2.60393 30.8684 1.44 2.63575 31.3709 1.44 
2.65993 31.8738 1.44 2.67853 32.377 1.44 2.69234 32.8804 1.44 
2.70293 33.3838 1.44 2.71029 33.8872 1.44 2.71514 34.3907 1.44 
2.71779 34.8943 1.44 2.71856 35.3978 1.44 2.71838 35.9013 1.44 
2.71731 36.4048 1.44 2.71608 36.9084 1.44 2.71484 37.4119 1.44 
2.71356 37.9154 1.44 2.71232 38.4189 1.44 2.71099 38.9225 1.44 
2.70964 39.426 1.44 2.70822 39.9295 1.44 2.70679 40.433 1.44 
2.70562 40.9366 1.44 2.70473 41.4401 1.44 2.70394 41.9436 1.44 
2.70333 42.4471 1.44 2.70293 42.9507 1.44 2.70254 43.4542 1.44 
2.70215 43.9577 1.44 2.70192 44.4612 1.44 2.70187 44.9648 1.44 
2.70212 45.4683 1.44 2.70275 45.9718 1.44 2.70372 46.4753 1.44 
2.70485 46.9789 1.44 2.70609 47.4824 1.44 2.70733 47.9859 1.44 
2.70852 48.4894 1.44 2.70976 48.993 1.44 2.71109 49.4965 1.44 
2.71272 50 1.44 1.37206 0 1.44 1.60041 0.441676 1.44 
2.03255 0.695154 1.44 2.44198 0.98726 1.44 2.84414 1.28962 1.44 
3.29631 1.50841 1.44 3.77923 1.65127 1.44 4.26895 1.76773 1.44 
4.76655 1.84541 1.44 5.26465 1.91964 1.44 5.7637 1.98745 1.44 
6.26495 2.03624 1.44 6.76849 2.04613 1.44 7.27149 2.02162 1.44 
7.7752 2.01787 1.44 8.27837 2.04083 1.44 8.7809 2.07517 1.44 
9.28305 2.11464 1.44 9.78511 2.15532 1.44 10.2873 2.19393 1.44 
10.7897 2.23028 1.44 11.2924 2.26305 1.44 11.7953 2.29122 1.44 
12.2985 2.31511 1.44 12.8018 2.3347 1.44 13.3053 2.35102 1.44 
13.8088 2.36364 1.44 14.3124 2.3741 1.44 14.8161 2.38324 1.44 
15.3197 2.39105 1.44 15.8234 2.39833 1.44 16.3271 2.40497 1.44 
16.8308 2.41041 1.44 17.3345 2.41389 1.44 17.8382 2.41516 1.44 
18.3419 2.41432 1.44 18.8456 2.41062 1.44 19.3493 2.40516 1.44 
19.853 2.39878 1.44 20.3567 2.39139 1.44 20.8603 2.38437 1.44 
21.364 2.37829 1.44 21.8677 2.37297 1.44 22.3714 2.36934 1.44 
22.8751 2.36831 1.44 23.3788 2.36988 1.44 23.8825 2.37591 1.44 
24.3861 2.38937 1.44 24.8892 2.41254 1.44 25.3916 2.44872 1.44 
25.8924 2.50272 1.44 26.3913 2.5719 1.44 26.8882 2.65425 1.44 
27.3832 2.7479 1.44 27.8767 2.84846 1.44 28.3706 2.94781 1.44 
28.8652 3.04331 1.44 29.3615 3.12876 1.44 29.86 3.20105 1.44 
30.3603 3.25983 1.44 30.8618 3.3071 1.44 31.3642 3.34238 1.44 
31.8672 3.36991 1.44 32.3705 3.39147 1.44 32.8739 3.40787 1.44 
33.3775 3.42046 1.44 33.8811 3.42911 1.44 34.3848 3.43492 1.44 
34.8885 3.43802 1.44 35.3922 3.439 1.44 35.896 3.439 1.44 
36.3997 3.43814 1.44 36.9034 3.43712 1.44 37.4071 3.43612 1.44 
37.9108 3.43517 1.44 38.4146 3.43424 1.44 38.9183 3.43317 1.44 
39.422 3.4321 1.44 39.9257 3.43089 1.44 40.4294 3.42972 1.44 
40.9331 3.42893 1.44 41.4369 3.42849 1.44 41.9406 3.42833 1.44 
42.4443 3.4287 1.44 42.948 3.42936 1.44 43.4517 3.43001 1.44 
43.9555 3.43071 1.44 44.4592 3.43166 1.44 44.9629 3.43294 1.44 
45.4666 3.43466 1.44 45.9703 3.43693 1.44 46.4741 3.43975 1.44 
46.9778 3.44287 1.44 47.4815 3.44618 1.44 47.9852 3.44963 1.44 
48.4889 3.45329 1.44 48.9926 3.45721 1.44 49.4963 3.46141 1.44 
50 3.4654 1.44 1.59554 1.90446 1.44 1.64502 2.35498 1.44 
2.12144 2.31287 1.44 2.62069 2.24992 1.44 3.12132 2.2953 1.44 
3.61386 2.39673 1.44 4.10173 2.51869 1.44 4.59111 2.6326 1.44 
5.08227 2.73868 1.44 5.56465 2.88089 1.44 6.04703 3.023 1.44 
6.52062 3.19133 1.44 6.97733 3.40142 1.44 7.44362 3.58903 1.44 
7.92351 3.73925 1.44 8.40903 3.87018 1.44 8.89857 3.98522 1.44 
9.39084 4.08804 1.44 9.88529 4.17977 1.44 10.3819 4.25908 1.44 
10.8798 4.32989 1.44 11.3792 4.38947 1.44 11.8795 4.44068 1.44 
12.3806 4.48337 1.44 12.8823 4.51766 1.44 13.3845 4.54601 1.44 
13.8869 4.56748 1.44 14.3895 4.58542 1.44 14.8923 4.59931 1.44 
15.3951 4.61038 1.44 15.8979 4.6203 1.44 16.4008 4.62784 1.44 
16.9036 4.63581 1.44 17.4065 4.64254 1.44 17.9094 4.64988 1.44 
18.4122 4.66015 1.44 18.915 4.67034 1.44 19.4178 4.68134 1.44 
19.9207 4.68366 1.44 20.4237 4.68432 1.44 20.9266 4.68806 1.44 
21.4289 4.66733 1.44 21.9298 4.62242 1.44 22.4306 4.57587 1.44 
22.9318 4.5353 1.44 23.4337 4.50371 1.44 23.9364 4.48766 1.44 
24.4393 4.48565 1.44 24.9419 4.50245 1.44 25.4435 4.5388 1.44 
25.9431 4.5959 1.44 26.4398 4.67483 1.44 26.9338 4.76914 1.44 
27.4254 4.87492 1.44 27.916 4.98578 1.44 28.4074 5.09287 1.44 
28.9001 5.19355 1.44 29.3953 5.28122 1.44 29.8929 5.35438 1.44 
30.3923 5.41344 1.44 30.893 5.46075 1.44 31.3946 5.49736 1.44 
31.8966 5.52711 1.44 32.399 5.55068 1.44 32.9016 5.5687 1.44 
33.4044 5.5819 1.44 33.9072 5.59027 1.44 34.4101 5.59521 1.44 
34.9131 5.59722 1.44 35.416 5.59708 1.44 35.9189 5.59617 1.44 
36.4218 5.59496 1.44 36.9248 5.59396 1.44 37.4277 5.59348 1.44 
37.9306 5.59332 1.44 38.4336 5.59303 1.44 38.9365 5.59278 1.44 
39.4394 5.59246 1.44 39.9423 5.59224 1.44 40.4453 5.59244 1.44 
40.9482 5.59326 1.44 41.4511 5.59463 1.44 41.954 5.59633 1.44 
42.457 5.59828 1.44 42.9599 5.60048 1.44 43.4628 5.60298 1.44 
43.9657 5.6058 1.44 44.4687 5.60935 1.44 44.9716 5.61373 1.44 
45.4745 5.61898 1.44 45.9774 5.6251 1.44 46.4802 5.63207 1.44 
46.9831 5.63957 1.44 47.486 5.64768 1.44 47.9888 5.65652 1.44 
48.4917 5.6662 1.44 48.9945 5.67702 1.44 49.4973 5.6893 1.44 
50 5.70281 1.44 2.5 3.62349 1.44 2.36298 4.1035 1.44 
2.32111 4.60191 1.44 2.39092 5.09806 1.44 2.47711 5.59219 1.44 
2.55143 6.08838 1.44 2.7089 6.56126 1.44 2.91441 7.01744 1.44 
3.05905 7.49752 1.44 3.1724 7.98623 1.44 3.27036 8.47825 1.44 
3.35817 8.9722 1.44 3.4391 9.46732 1.44 3.51013 9.96397 1.44 
3.57406 10.4616 1.44 3.63109 10.96 1.44 3.68027 11.4593 1.44 
3.72275 11.9592 1.44 3.75804 12.4597 1.44 3.78748 12.9605 1.44 
[...]
CELL_DATA 197
FIELD FieldData 2
CellId 1 197 int
0 140 72 168 71 37 70 50 169 
38 51 49 48 42 46 52 47 69 
53 68 45 54 67 55 56 66 57 
58 62 63 64 61 60 59 65 194 
193 190 189 188 187 191 44 43 192 
143 167 142 99 141 76 144 145 97 
95 79 92 146 77 78 80 147 81 
91 148 154 82 153 149 152 159 150 
151 158 155 156 157 160 166 83 161 
90 85 89 86 87 88 94 93 84 
162 163 164 165 31 30 34 26 27 
2 4 36 35 40 25 6 41 8 
5 7 9 24 170 11 10 23 12 
20 13 15 14 21 22 19 16 17 
18 180 195 196 179 178 177 176 171 
172 182 181 183 175 174 173 184 185 
186 29 28 32 137 138 98 119 104 
118 105 120 117 101 100 102 116 103 
108 107 123 106 110 109 121 122 124 
127 125 128 129 126 131 130 132 133 
134 111 112 135 114 115 113 136 139 
74 75 73 96 1 3 33 39 
Length 1 197 float
1.38356 2.12023 46.9925 23.8454 48.6554 50.1665 48.7565 47.6065 43.113 
47.5019 15.9837 45.8585 13.9715 45.7072 13.285 21.4498 16.8707 78.9989 
20.0077 77.2034 43.029 15.0519 75.546 9.33257 8.44356 28.5905 4.89052 
2.23533 28.8657 29.5194 30.3032 3.4282 0.294447 0.352268 14.4175 0.690656 
0.443824 6.54108 30.34 29.6211 29.9899 28.0684 24.7116 21.5264 16.4206 
45.8336 21.7407 48.6265 50.0643 0.199773 48.8382 43.1082 65.2638 48.3637 
46.8283 59.8499 45.6397 24.4411 50.6989 18.9738 78.3642 10.4912 76.5988 
42.8777 1.51024 15.3531 39.0759 11.3369 1.64022 8.25366 28.5982 2.88361 
6.00894 28.8484 29.5163 30.3022 5.06546 0.0679263 14.8144 12.0444 0.137437 
32.6303 29.6061 0.699338 28.7768 28.0957 0.736579 24.2793 21.5265 18.8982 
3.86819 1.05762 0.994116 0.949727 1.41146 0.659833 47.8491 45.6885 21.5735 
0.578208 50.3274 0.636107 48.2462 48.4328 43.3456 64.4194 46.8343 28.2785 
79.7341 20.4546 22.9126 77.8833 42.8817 16.5179 13.2946 76.1555 10.4965 
31.0156 7.54258 1.9815 4.27269 28.0154 28.8524 30.5359 9.15591 0.918917 
16.1691 0.420337 0.170963 0.227583 0.567149 0.188381 1.17903 9.82362 32.5944 
29.6096 28.7779 1.03152 28.0847 1.269 0.226423 16.4642 2.54591 2.50907 
1.41238 47.5783 24.0492 0.669952 95.7795 43.3081 47.522 62.6474 27.6759 
79.4668 22.1374 21.6053 77.6383 1.17949 43.0353 10.3978 75.9257 13.6598 
7.14638 6.79431 31.2051 8.70258 3.75181 5.36523 27.9833 28.817 30.7141 
8.58034 1.06831 0.900097 16.4191 0.572796 3.38273 0.486704 0.638611 0.882334 
0.0050695 0.316122 7.78427 30.3213 29.5888 29.9657 28.0739 16.1708 0.144219 
0.176994 0.280895 0.184139 0.169183 0.194406 0.0478319 0.00682117 0.183215 
