# vtk DataFile Version 4.2
vtk output
ASCII
DATASET POLYDATA
POINTS 9410 float
0.0210098 0.72899 6.24 -0.268664 0.731336 6.24 1.69132 50 6.24 
1.69224 49.4976 6.24 1.69336 48.9952 6.24 1.69398 48.4929 6.24 
1.69407 47.9905 6.24 1.69358 47.4881 6.24 1.69273 46.9857 6.24 
1.69171 46.4833 6.24 1.69053 45.9809 6.24 1.68942 45.4786 6.24 
1.68856 44.9762 6.24 1.68806 44.4738 6.24 1.68801 43.9714 6.24 
1.68837 43.469 6.24 1.68889 42.9666 6.24 1.6894 42.4643 6.24 
1.68992 41.9619 6.24 1.69048 41.4595 6.24 1.69112 40.9571 6.24 
1.69206 40.4547 6.24 1.69353 39.9524 6.24 1.69519 39.45 6.24 
1.69667 38.9476 6.24 1.69793 38.4452 6.24 1.69875 37.9428 6.24 
1.69936 37.4404 6.24 1.69944 36.9381 6.24 1.69914 36.4357 6.24 
1.6984 35.9333 6.24 1.69596 35.4309 6.24 1.69211 34.9286 6.24 
1.68569 34.4262 6.24 1.6765 33.9239 6.24 1.66443 33.4217 6.24 
1.64837 32.9196 6.24 1.62844 32.4176 6.24 1.60245 31.9159 6.24 
1.56884 31.4146 6.24 1.52524 30.9142 6.24 1.46748 30.4151 6.24 
1.39271 29.9184 6.24 1.3012 29.4244 6.24 1.19671 28.933 6.24 
1.08592 28.443 6.24 0.971359 27.9539 6.24 0.841179 27.4687 6.24 
0.71559 26.9824 6.24 0.64261 26.4855 6.24 0.609163 25.9843 6.24 
0.595211 25.4822 6.24 0.591673 24.9798 6.24 0.593505 24.4774 6.24 
0.5978 23.9751 6.24 0.603648 23.4727 6.24 0.610158 22.9704 6.24 
0.616849 22.468 6.24 0.623384 21.9657 6.24 0.629429 21.4634 6.24 
0.634672 20.961 6.24 0.638927 20.4586 6.24 0.642207 19.9563 6.24 
0.644418 19.4539 6.24 0.645723 18.9515 6.24 0.646305 18.4491 6.24 
0.645437 17.9467 6.24 0.643986 17.4444 6.24 0.641387 16.942 6.24 
0.637432 16.4396 6.24 0.632867 15.9373 6.24 0.627915 15.4349 6.24 
0.62257 14.9325 6.24 0.617242 14.4302 6.24 0.612455 13.9278 6.24 
0.608047 13.4255 6.24 0.602885 12.9231 6.24 0.597534 12.4208 6.24 
0.591339 11.9184 6.24 0.583688 11.4161 6.24 0.57505 10.9138 6.24 
0.56681 10.4115 6.24 0.55926 9.90915 6.24 0.552578 9.40681 6.24 
0.547365 8.90445 6.24 0.542785 8.40209 6.24 0.5362 7.89975 6.24 
0.527503 7.39745 6.24 0.511045 6.89534 6.24 0.484886 6.39366 6.24 
0.440775 5.89334 6.24 0.354587 5.39864 6.24 0.193084 4.9246 6.24 
0.0429288 4.4451 6.24 -0.043068 3.95693 6.24 0.599155 50 6.24 
0.601665 49.4924 6.24 0.603238 48.9847 6.24 0.604305 48.477 6.24 
0.604949 47.9694 6.24 0.605091 47.4617 6.24 0.604909 46.954 6.24 
0.604586 46.4464 6.24 0.604163 45.9387 6.24 0.603854 45.431 6.24 
0.603786 44.9234 6.24 0.603973 44.4157 6.24 0.604391 43.908 6.24 
0.604953 43.4004 6.24 0.605426 42.8927 6.24 0.60562 42.385 6.24 
0.605671 41.8774 6.24 0.605828 41.3697 6.24 0.606256 40.8621 6.24 
0.606992 40.3544 6.24 0.608042 39.8467 6.24 0.608968 39.3391 6.24 
0.60958 38.8314 6.24 0.609891 38.3237 6.24 0.610053 37.8161 6.24 
0.61032 37.3084 6.24 0.610478 36.8007 6.24 0.610669 36.2931 6.24 
0.610478 35.7854 6.24 0.609415 35.2778 6.24 0.60774 34.7701 6.24 
0.604656 34.2624 6.24 0.600575 33.7548 6.24 0.595042 33.2472 6.24 
0.587507 32.7396 6.24 0.577751 32.232 6.24 0.563099 31.7245 6.24 
0.541324 31.2174 6.24 0.507874 30.7108 6.24 0.455942 30.2059 6.24 
0.361359 29.7073 6.24 0.179716 29.2355 6.24 0.0877911 28.7376 6.24 
0.0510933 28.2319 6.24 -0.0084044 27.7416 6.24 2.79063 50 6.24 
2.79103 49.4957 6.24 2.7904 48.9913 6.24 2.78914 48.487 6.24 
2.7875 47.9827 6.24 2.78546 47.4784 6.24 2.78332 46.974 6.24 
2.78119 46.4697 6.24 2.77909 45.9654 6.24 2.7772 45.461 6.24 
2.7755 44.9567 6.24 2.7741 44.4524 6.24 2.77322 43.9481 6.24 
2.77287 43.4437 6.24 2.77286 42.9394 6.24 2.77315 42.4351 6.24 
2.77366 41.9307 6.24 2.7743 41.4264 6.24 2.77517 40.9221 6.24 
2.77641 40.4178 6.24 2.77799 39.9134 6.24 2.77973 39.4091 6.24 
2.78155 38.9048 6.24 2.78333 38.4004 6.24 2.78472 37.8961 6.24 
2.78573 37.3918 6.24 2.78597 36.8874 6.24 2.78546 36.3831 6.24 
2.78372 35.8788 6.24 2.77984 35.3745 6.24 2.77387 34.8702 6.24 
2.76436 34.3659 6.24 2.75089 33.8618 6.24 2.73324 33.3578 6.24 
2.71047 32.854 6.24 2.68246 32.3504 6.24 2.64761 31.8473 6.24 
2.60522 31.3448 6.24 2.55292 30.8432 6.24 2.48744 30.3431 6.24 
2.40943 29.8449 6.24 2.31856 29.3488 6.24 2.21559 28.8551 6.24 
2.10588 28.3629 6.24 1.99533 27.8708 6.24 1.88805 27.378 6.24 
1.79423 26.8826 6.24 1.72248 26.3834 6.24 1.67561 25.8813 6.24 
1.65088 25.3776 6.24 1.64304 24.8734 6.24 1.64651 24.3691 6.24 
1.65634 23.8648 6.24 1.67049 23.3607 6.24 1.68685 22.8566 6.24 
1.70366 22.3526 6.24 1.72006 21.8485 6.24 1.73496 21.3444 6.24 
1.74749 20.8402 6.24 1.7572 20.336 6.24 1.76445 19.8317 6.24 
1.76857 19.3274 6.24 1.77076 18.8231 6.24 1.77065 18.3188 6.24 
1.76749 17.8144 6.24 1.76283 17.3101 6.24 1.75483 16.8059 6.24 
1.7444 16.3016 6.24 1.73264 15.7974 6.24 1.72002 15.2933 6.24 
1.70699 14.7891 6.24 1.69359 14.285 6.24 1.68045 13.7808 6.24 
1.66643 13.2767 6.24 1.65082 12.7726 6.24 1.6342 12.2685 6.24 
1.61597 11.7645 6.24 1.59634 11.2606 6.24 1.57633 10.7566 6.24 
1.55722 10.2527 6.24 1.53952 9.74866 6.24 1.52358 9.24458 6.24 
1.51132 8.7404 6.24 1.49985 8.2362 6.24 1.48787 7.73201 6.24 
1.47318 7.2279 6.24 1.44642 6.72429 6.24 1.40624 6.22158 6.24 
1.34432 5.72112 6.24 1.25575 5.22467 6.24 1.14989 4.73162 6.24 
1.01821 4.24514 6.24 0.835138 3.77573 6.24 0.672905 3.2995 6.24 
0.593804 2.80268 6.24 0.47176 2.31489 6.24 0.633293 1.86613 6.24 
1.01968 1.54737 6.24 1.48786 1.37271 6.24 1.95002 1.54998 6.24 
0.519186 0 6.24 0.929482 0.820518 6.24 2 2.1346 6.24 
1.7254 2.5246 6.24 2.03597 0 6.24 2.37193 0.367141 6.24 
2.73559 0.711933 6.24 3.13625 1.01189 6.24 3.57702 1.24875 6.24 
4.0397 1.44149 6.24 4.51453 1.60166 6.24 5.00147 1.72038 6.24 
5.49456 1.8104 6.24 5.9916 1.87516 6.24 6.49117 1.91635 6.24 
6.99155 1.94653 6.24 7.49243 1.96631 6.24 7.99347 1.98203 6.24 
8.49447 1.99916 6.24 8.99548 2.01558 6.24 9.49634 2.03633 6.24 
9.99709 2.05944 6.24 10.4978 2.08414 6.24 10.9984 2.1104 6.24 
11.4989 2.13714 6.24 11.9995 2.16285 6.24 12.5003 2.18686 6.24 
13.001 2.20932 6.24 13.5019 2.22971 6.24 14.0029 2.24788 6.24 
14.5038 2.26567 6.24 15.0048 2.2829 6.24 15.5058 2.29953 6.24 
16.0069 2.31513 6.24 16.508 2.32952 6.24 17.0091 2.3414 6.24 
17.5103 2.3497 6.24 18.0116 2.35529 6.24 18.5128 2.35816 6.24 
19.0141 2.35752 6.24 19.5154 2.35478 6.24 20.0167 2.34863 6.24 
20.5178 2.33874 6.24 21.0189 2.32504 6.24 21.5199 2.30698 6.24 
22.0207 2.28577 6.24 22.5215 2.26278 6.24 23.0223 2.23972 6.24 
23.5231 2.21831 6.24 24.0241 2.2007 6.24 24.5252 2.19003 6.24 
25.0265 2.18944 6.24 25.5276 2.20329 6.24 26.0276 2.23747 6.24 
26.5258 2.29333 6.24 27.021 2.3707 6.24 27.5129 2.46718 6.24 
28.0027 2.57409 6.24 28.4919 2.68323 6.24 28.9814 2.79154 6.24 
29.4727 2.89112 6.24 29.9662 2.97904 6.24 30.4618 3.05432 6.24 
30.959 3.11791 6.24 31.4576 3.16913 6.24 31.9571 3.21199 6.24 
32.4571 3.24723 6.24 32.9576 3.27573 6.24 33.4583 3.29918 6.24 
33.9593 3.3172 6.24 34.4604 3.33093 6.24 34.9616 3.34033 6.24 
35.4628 3.34637 6.24 35.9641 3.35003 6.24 36.4654 3.35132 6.24 
36.9667 3.35156 6.24 37.468 3.35087 6.24 37.9692 3.34952 6.24 
38.4705 3.34786 6.24 38.9718 3.3459 6.24 39.4731 3.34399 6.24 
39.9744 3.34214 6.24 40.4757 3.34048 6.24 40.9769 3.33923 6.24 
41.4782 3.33842 6.24 41.9795 3.33784 6.24 42.4808 3.33747 6.24 
42.9821 3.3374 6.24 43.4834 3.33773 6.24 43.9847 3.33851 6.24 
44.4859 3.33981 6.24 44.9872 3.34153 6.24 45.4885 3.34356 6.24 
45.9898 3.34591 6.24 46.4911 3.34862 6.24 46.9923 3.35148 6.24 
47.4936 3.3546 6.24 47.9949 3.35775 6.24 48.4962 3.36083 6.24 
48.9975 3.36394 6.24 49.4987 3.36717 6.24 50 3.37105 6.24 
2.47786 2.04365 6.24 2.97237 2.12348 6.24 3.45987 2.24257 6.24 
3.92518 2.43219 6.24 4.4049 2.58137 6.24 4.89838 2.67598 6.24 
5.39367 2.76122 6.24 5.89357 2.8124 6.24 6.39564 2.83544 6.24 
6.89797 2.85296 6.24 7.40035 2.86923 6.24 7.90267 2.88707 6.24 
8.40465 2.91272 6.24 8.90635 2.94337 6.24 9.40761 2.98043 6.24 
9.90863 3.02078 6.24 10.4096 3.06197 6.24 10.9103 3.10554 6.24 
11.4111 3.14846 6.24 11.912 3.18985 6.24 12.4132 3.2286 6.24 
12.9146 3.26381 6.24 13.4162 3.29585 6.24 13.9181 3.32403 6.24 
14.42 3.35059 6.24 14.922 3.37542 6.24 15.4241 3.39876 6.24 
15.9263 3.42032 6.24 16.4286 3.43946 6.24 16.9309 3.45557 6.24 
17.4335 3.4673 6.24 17.936 3.47598 6.24 18.4386 3.48219 6.24 
18.9413 3.48477 6.24 19.4439 3.48635 6.24 19.9465 3.48417 6.24 
20.4491 3.47702 6.24 20.9516 3.4631 6.24 21.4536 3.4378 6.24 
21.955 3.40289 6.24 22.456 3.36252 6.24 22.9569 3.32069 6.24 
23.458 3.28228 6.24 23.9597 3.25179 6.24 24.462 3.2315 6.24 
24.9646 3.22691 6.24 25.467 3.24088 6.24 25.9683 3.27729 6.24 
26.4673 3.33753 6.24 26.9634 3.41776 6.24 27.4563 3.51629 6.24 
27.9468 3.62608 6.24 28.4369 3.73741 6.24 28.9272 3.84821 6.24 
29.4194 3.95021 6.24 29.9139 4.04021 6.24 30.4105 4.11788 6.24 
30.9088 4.1836 6.24 31.4085 4.23733 6.24 31.9092 4.2824 6.24 
32.4104 4.3204 6.24 32.912 4.35189 6.24 33.414 4.37773 6.24 
33.9162 4.39757 6.24 34.4186 4.41258 6.24 34.9212 4.42269 6.24 
35.4238 4.42865 6.24 35.9264 4.43197 6.24 36.429 4.43283 6.24 
36.9317 4.43244 6.24 37.4343 4.43145 6.24 37.937 4.43008 6.24 
38.4396 4.42842 6.24 38.9422 4.42668 6.24 39.4449 4.42494 6.24 
39.9475 4.42331 6.24 40.4502 4.42199 6.24 40.9528 4.42115 6.24 
41.4554 4.42074 6.24 41.9581 4.42069 6.24 42.4607 4.42104 6.24 
42.9634 4.42185 6.24 43.466 4.42315 6.24 43.9686 4.42492 6.24 
44.4713 4.42707 6.24 44.9739 4.42971 6.24 45.4765 4.43281 6.24 
45.9792 4.43648 6.24 46.4818 4.44093 6.24 46.9844 4.44576 6.24 
47.487 4.451 6.24 47.9896 4.45657 6.24 48.4922 4.46244 6.24 
48.9948 4.46885 6.24 49.4974 4.47619 6.24 50 4.48423 6.24 
3.35403 3.14597 6.24 2.88652 3.08236 6.24 2.42589 3.27011 6.24 
2.17054 3.6946 6.24 2.11572 4.19409 6.24 2.11363 4.69789 6.24 
2.20601 5.19367 6.24 2.29315 5.69087 6.24 2.35196 6.19223 6.24 
2.39393 6.69529 6.24 2.41455 7.19966 6.24 2.42129 7.70444 6.24 
2.43264 8.20914 6.24 2.45067 8.71364 6.24 2.47481 9.21789 6.24 
2.50404 9.72187 6.24 2.5356 10.2257 6.24 2.56916 10.7294 6.24 
2.60374 11.2331 6.24 2.63744 11.7368 6.24 2.66945 12.2406 6.24 
2.69915 12.7445 6.24 2.72631 13.2486 6.24 2.75061 13.7529 6.24 
2.77285 14.2572 6.24 2.79452 14.7616 6.24 2.81496 15.266 6.24 
[...]
CELL_DATA 207
FIELD FieldData 2
CellId 1 207 int
1 10 13 9 8 69 70 68 74 
195 118 119 120 117 75 196 121 197 
122 150 125 140 123 124 141 127 126 
142 128 129 143 144 146 147 145 130 
131 132 133 148 139 149 136 137 138 
134 116 135 199 198 11 12 14 4 
15 26 18 16 19 27 194 22 32 
33 30 25 28 29 34 54 31 37 
53 35 36 67 39 38 40 63 41 
64 65 62 66 61 42 43 44 60 
59 58 48 47 46 45 57 23 49 
24 50 51 52 56 55 5 79 152 
155 153 154 78 151 72 81 82 83 
73 113 114 102 85 80 101 86 84 
100 87 103 88 203 89 90 104 105 
107 109 108 106 110 204 111 91 92 
93 112 97 96 95 94 115 98 99 
200 201 202 192 156 191 161 158 160 
159 162 157 163 205 164 190 188 189 
174 187 206 175 186 185 176 184 177 
178 182 181 180 179 183 173 165 166 
167 168 169 172 170 171 0 3 2 
17 21 20 193 6 7 71 77 76 

Length 1 207 float
0.289683 46.21 22.3191 49.8786 1.72077 48.7105 48.9248 47.9047 47.0838 
64.0256 43.1379 15.1884 26.2307 51.0277 44.918 78.7924 11.8603 77.035 
9.86559 12.1961 9.6455 75.3745 7.70208 8.06004 27.6588 7.78847 3.7874 
28.4339 4.22978 2.23319 28.9812 29.7101 5.56497 0.326448 16.4184 0.656114 
0.320844 1.11296 7.97043 0.0766361 31.8832 2.51394 29.1467 28.3335 27.607 
1.99441 20.2648 16.4176 1.06901 0.0109139 45.0651 20.4839 50.199 2.15725 
49.1356 48.6685 48.7318 48.1416 47.0765 48.4012 14.2113 46.1711 15.7668 
26.6387 51.3804 44.9194 44.4536 79.0342 22.3121 77.2571 12.6846 10.2191 
75.5803 7.74049 7.62099 27.8007 5.83849 5.37682 4.54144 28.575 2.8058 
28.9688 29.8442 6.96089 16.1702 0.579985 1.10017 1.14305 35.0262 0.209576 
0.778781 3.16106 7.88986 29.0866 28.2716 27.551 0.159394 22.5391 1.47455 
20.2748 0.652379 0.699264 16.4615 1.24422 2.40848 1.11965 98.9496 46.5787 
44.9836 22.695 20.3627 48.5928 1.40228 48.1229 48.909 43.1948 17.6483 
46.1565 27.323 19.5387 79.2453 12.5219 44.1757 77.4697 20.08 13.8528 
75.7913 15.2068 30.5737 10.2539 27.6517 5.28249 2.52032 28.3807 30.3996 
9.52252 1.05146 0.59316 0.0314745 1.39363 16.1667 0.847648 1.21912 1.10524 
33.4933 4.41429 8.18928 29.0753 28.2587 27.5392 22.5257 2.43779 16.4171 
1.19969 1.50039 1.13015 49.5222 48.5924 49.0262 42.7112 18.7248 14.8242 
26.1377 79.4372 44.6733 77.6567 21.7668 75.969 12.2037 8.84022 17.9902 
40.503 1.36805 12.6776 27.5004 1.69861 6.09588 28.2133 4.92368 29.0382 
29.8222 4.79036 3.64432 2.30316 2.2216 0.251888 9.1009 31.9157 3.65929 
29.1355 28.3225 27.597 1.05715 16.417 2.15841 0.079291 0.0855107 0.194766 
0.0242336 0.037069 0.0631556 0.00489833 0.0192933 0.14254 0.0264463 0.0408331 0.0890765 

