# vtk DataFile Version 4.2
vtk output
ASCII
DATASET POLYDATA
POINTS 9331 float
0 0.624727 3.36 0.310085 0.185138 3.36 0.385152 -0.364848 3.36 
0.12649 1.37351 3.36 -0.404242 1.42894 3.36 -0.535868 1.96741 3.36 
-0.255626 2.45445 3.36 0.25662 2.35712 3.36 0.429223 1.83122 3.36 
0.12649 1.37351 3.36 -1.14639 1.85361 3.36 -1.1883 2.34096 3.36 
-1.11286 2.83201 3.36 -0.885368 3.27569 3.36 -0.52701 3.62627 3.36 
-0.0906059 3.84534 3.36 0.344045 3.62855 3.36 0.71929 3.29601 3.36 
0.990542 2.87719 3.36 1.10993 2.39526 3.36 1.08294 1.91706 3.36 
12.8268 13.1732 3.36 12.4532 13.2442 3.36 11.9916 13.0327 3.36 
11.5497 12.7814 3.36 11.1412 12.4789 3.36 10.7633 12.1382 3.36 
10.3947 11.7873 3.36 10.0178 11.4452 3.36 9.6293 11.1164 3.36 
9.22727 10.8044 3.36 8.81282 10.509 3.36 8.38475 10.2338 3.36 
7.94 9.98659 3.36 7.47896 9.77118 3.36 7.00762 9.5791 3.36 
6.52936 9.40504 3.36 6.04055 9.26337 3.36 5.5468 9.13975 3.36 
5.05115 9.02398 3.36 4.55304 8.91933 3.36 4.05301 8.82427 3.36 
3.55151 8.7373 3.36 3.0487 8.65824 3.36 2.54484 8.58615 3.36 
2.04075 8.51571 3.36 1.53668 8.44506 3.36 1.0347 8.36124 3.36 
0.538778 8.24719 3.36 0.0622608 8.06864 3.36 -0.421372 8.12411 3.36 
-0.906547 8.27651 3.36 -1.40374 8.38488 3.36 -1.9061 8.46671 3.36 
-2.40972 8.54049 3.36 -2.91364 8.61219 3.36 -3.41687 8.68853 3.36 
-3.91868 8.77372 3.36 -4.41925 8.86593 3.36 -4.91805 8.96723 3.36 
-5.41421 9.08075 3.36 -5.90867 9.2015 3.36 -6.39951 9.33603 3.36 
-6.88068 9.50163 3.36 -7.35525 9.68559 3.36 -7.82243 9.88748 3.36 
-8.26686 10.135 3.36 -8.68071 10.431 3.36 -9.07152 10.757 3.36 
-9.4499 11.0974 3.36 -9.81518 11.4518 3.36 -10.1654 11.8211 3.36 
-10.5092 12.1963 3.36 -10.8798 12.5447 3.36 -11.3101 12.8141 3.36 
-11.7775 12.9725 3.36 10.4013 13.0987 3.36 9.99912 12.8278 3.36 
9.64664 12.4599 3.36 9.2828 12.103 3.36 8.89171 11.776 3.36 
8.48361 11.4704 3.36 8.0564 11.1921 3.36 7.61051 10.9449 3.36 
7.1483 10.7297 3.36 6.67298 10.5453 3.36 6.1886 10.386 3.36 
5.69693 10.2507 3.36 5.20102 10.132 3.36 4.7019 10.0274 3.36 
4.20079 9.93283 3.36 3.69805 9.84729 3.36 3.19437 9.76752 3.36 
2.6898 9.69353 3.36 2.18466 9.62356 3.36 1.67934 9.55495 3.36 
1.17383 9.48768 3.36 0.668725 9.41748 3.36 0.165155 9.33711 3.36 
-0.340576 9.32019 3.36 -0.843493 9.40606 3.36 -1.34837 9.47789 3.36 
-1.8535 9.54793 3.36 -2.35851 9.61883 3.36 -2.86339 9.69068 3.36 
-3.36762 9.76688 3.36 -3.87094 9.8489 3.36 -4.37321 9.93711 3.36 
-4.87374 10.0347 3.36 -5.37188 10.1438 3.36 -5.86654 10.2677 3.36 
-6.35608 10.4103 3.36 -6.83789 10.5772 3.36 -7.30858 10.7731 3.36 
-7.764 11.0022 3.36 -8.19961 11.2671 3.36 -8.61511 11.5625 3.36 
-9.01328 11.881 3.36 -9.38421 12.2301 3.36 -9.69263 12.636 3.36 
-9.9243 13.0757 3.36 9.15206 13.0979 3.36 8.77395 12.7626 3.36 
8.3599 12.4616 3.36 7.92438 12.1923 3.36 7.4708 11.9544 3.36 
7.00282 11.7462 3.36 6.52382 11.5648 3.36 6.03531 11.4107 3.36 
5.5408 11.2772 3.36 5.04111 11.1645 3.36 4.53848 11.0657 3.36 
4.03378 10.978 3.36 3.5276 10.8994 3.36 3.02066 10.8257 3.36 
2.51294 10.7577 3.36 2.0047 10.6936 3.36 1.49627 10.6311 3.36 
0.987362 10.5725 3.36 0.478581 10.5129 3.36 -0.0303416 10.4562 3.36 
-0.5406 10.4909 3.36 -1.04939 10.5505 3.36 -1.55821 10.6097 3.36 
-2.06654 10.6731 3.36 -2.57472 10.7376 3.36 -3.08233 10.8065 3.36 
-3.58914 10.881 3.36 -4.09518 10.9605 3.36 -4.59963 11.0496 3.36 
-5.10195 11.1499 3.36 -5.60098 11.2654 3.36 -6.09489 11.4011 3.36 
-6.58231 11.5584 3.36 -7.05964 11.7441 3.36 -7.5259 11.956 3.36 
-7.97837 12.1961 3.36 -8.41461 12.4644 3.36 -8.84325 12.7446 3.36 
-9.29743 12.9526 3.36 8.40473 13.3453 3.36 7.95475 13.1292 3.36 
7.48952 12.9463 3.36 7.01986 12.7746 3.36 6.54513 12.6175 3.36 
6.06482 12.4783 3.36 5.5804 12.3542 3.36 5.09196 12.247 3.36 
4.60054 12.1543 3.36 4.10746 12.0708 3.36 3.61278 11.9974 3.36 
3.11731 11.9294 3.36 2.62125 11.8659 3.36 2.12468 11.8065 3.36 
1.62794 11.7486 3.36 1.1309 11.6932 3.36 0.633737 11.639 3.36 
0.136533 11.5849 3.36 -0.362237 11.5815 3.36 -0.859421 11.6362 3.36 
-1.3566 11.6903 3.36 -1.85353 11.7466 3.36 -2.35021 11.8051 3.36 
-2.84662 11.8658 3.36 -3.34236 11.9317 3.36 -3.83759 12.0014 3.36 
-4.33161 12.0791 3.36 -4.82393 12.167 3.36 -5.31437 12.2647 3.36 
-5.80087 12.3805 3.36 -6.28362 12.5111 3.36 -6.76111 12.6596 3.36 
-7.23272 12.826 3.36 -7.69965 13.0048 3.36 -8.15915 13.2006 3.36 
-8.46597 13.534 3.36 14.3254 14.9246 3.36 13.8957 14.6981 3.36 
13.41 14.5513 3.36 12.9151 14.4409 3.36 12.4185 14.3383 3.36 
11.9249 14.2223 3.36 11.4328 14.1001 3.36 10.9398 13.982 3.36 
10.4404 13.8944 3.36 9.93425 13.8661 3.36 9.42781 13.8405 3.36 
8.92082 13.8373 3.36 8.41844 13.8942 3.36 7.91457 13.9119 3.36 
7.414 13.8312 3.36 6.91949 13.7191 3.36 6.42553 13.6046 3.36 
5.93085 13.4932 3.36 5.4346 13.3889 3.36 4.93615 13.2958 3.36 
4.4361 13.2115 3.36 3.93485 13.1348 3.36 3.43239 13.0664 3.36 
2.92949 13.0012 3.36 2.42605 12.9403 3.36 1.92231 12.8821 3.36 
1.41841 12.8252 3.36 0.914331 12.7699 3.36 0.410181 12.7153 3.36 
-0.0946068 12.6714 3.36 -0.599698 12.7087 3.36 -1.10387 12.7631 3.36 
-1.60794 12.8185 3.36 -2.1118 12.8757 3.36 -2.61549 12.9344 3.36 
-3.11875 12.9967 3.36 -3.62151 13.0629 3.36 -4.12359 13.134 3.36 
-4.62434 13.214 3.36 -5.12397 13.3006 3.36 -5.62131 13.3995 3.36 
-6.11702 13.5063 3.36 -6.61083 13.6214 3.36 -7.10462 13.7365 3.36 
-7.6006 13.842 3.36 -8.10402 13.8962 3.36 -8.60358 13.8313 3.36 
-9.10815 13.8074 3.36 -9.6151 13.8118 3.36 -10.1219 13.8146 3.36 
-10.6229 13.8889 3.36 -11.1184 13.9959 3.36 -11.6128 14.1089 3.36 
-12.105 14.2304 3.36 -12.5999 14.3411 3.36 -13.0953 14.4497 3.36 
-13.5894 14.5592 3.36 -13.8838 14.3662 3.36 15.538 16.212 3.36 
15.0845 15.9954 3.36 14.6006 15.844 3.36 14.1054 15.7312 3.36 
13.6045 15.6462 3.36 13.1057 15.5502 3.36 12.606 15.4587 3.36 
12.1038 15.3818 3.36 11.6022 15.3013 3.36 11.1007 15.2203 3.36 
10.5983 15.145 3.36 10.0947 15.0778 3.36 9.59011 15.0191 3.36 
9.08469 14.9676 3.36 8.57889 14.9201 3.36 8.07322 14.8716 3.36 
7.5687 14.8121 3.36 7.06592 14.7393 3.36 6.56481 14.6559 3.36 
6.06415 14.5697 3.36 5.56356 14.4831 3.36 5.0624 14.3999 3.36 
4.56028 14.3226 3.36 4.05767 14.2486 3.36 3.55417 14.1809 3.36 
3.05031 14.1159 3.36 2.54605 14.0542 3.36 2.04147 13.995 3.36 
1.53675 13.9372 3.36 1.03186 13.8807 3.36 0.526893 13.825 3.36 
0.0219122 13.7689 3.36 -0.48466 13.793 3.36 -0.989674 13.8482 3.36 
-1.49461 13.9042 3.36 -1.99938 13.9617 3.36 -2.504 14.0205 3.36 
-3.00833 14.0817 3.36 -3.51224 14.1462 3.36 -4.01581 14.2134 3.36 
-4.51851 14.2868 3.36 -5.02068 14.3638 3.36 -5.52192 14.4465 3.36 
-6.02245 14.5335 3.36 -6.52314 14.6195 3.36 -7.02396 14.7047 3.36 
-7.52664 14.7782 3.36 -8.03103 14.8387 3.36 -8.53674 14.887 3.36 
-9.04272 14.9325 3.36 -9.54833 14.9819 3.36 -10.053 15.0399 3.36 
-10.5567 15.1062 3.36 -11.0592 15.1812 3.36 -11.5607 15.2622 3.36 
-12.0622 15.3433 3.36 -12.5643 15.4209 3.36 -13.0643 15.5103 3.36 
-13.5626 15.6091 3.36 -14.0637 15.6926 3.36 -14.559 15.8037 3.36 
-15.021 15.979 3.36 16.1189 17.3253 3.36 15.6413 17.1629 3.36 
15.1532 17.0357 3.36 14.6619 16.9209 3.36 14.1731 16.7962 3.36 
13.6778 16.7015 3.36 13.1793 16.6239 3.36 12.6809 16.5456 3.36 
12.1821 16.4698 3.36 11.683 16.3967 3.36 11.1836 16.3252 3.36 
10.684 16.2553 3.36 10.1841 16.1872 3.36 9.68395 16.1211 3.36 
9.18358 16.0568 3.36 8.68306 15.9936 3.36 8.18255 15.9304 3.36 
7.68239 15.8645 3.36 7.18236 15.7975 3.36 6.68305 15.7255 3.36 
6.18378 15.6531 3.36 5.68469 15.5795 3.36 5.18566 15.5055 3.36 
4.68615 15.4348 3.36 4.18651 15.365 3.36 3.68645 15.2984 3.36 
3.18609 15.2339 3.36 2.68548 15.1715 3.36 2.18459 15.1114 3.36 
1.68354 15.0525 3.36 1.18234 14.995 3.36 0.681048 14.9384 3.36 
0.179681 14.8825 3.36 -0.323288 14.8693 3.36 -0.824609 14.9263 3.36 
-1.32592 14.9829 3.36 -1.82711 15.0405 3.36 -2.32813 15.0995 3.36 
-2.82898 15.16 3.36 -3.32954 15.2228 3.36 -3.82986 15.2875 3.36 
-4.3298 15.3551 3.36 -4.82937 15.4254 3.36 -5.32882 15.4965 3.36 
-5.82777 15.571 3.36 -6.32693 15.6441 3.36 -6.82614 15.7169 3.36 
-7.3257 15.7872 3.36 -7.82584 15.8534 3.36 -8.32613 15.9183 3.36 
-8.82673 15.9808 3.36 -9.32721 16.0442 3.36 -9.82756 16.1087 3.36 
-10.3276 16.1753 3.36 -10.8274 16.2439 3.36 -11.327 16.3142 3.36 
-11.8263 16.3863 3.36 -12.3254 16.4601 3.36 -12.824 16.5366 3.36 
-13.3223 16.6153 3.36 -13.8206 16.6942 3.36 -14.314 16.7984 3.36 
-14.8024 16.9249 3.36 -15.2934 17.0408 3.36 -15.7815 17.1678 3.36 
-16.2481 17.3574 3.36 15.1351 18.09 3.36 14.6432 17.9744 3.36 
14.1486 17.871 3.36 13.652 17.7775 3.36 13.1538 17.693 3.36 
12.6546 17.6148 3.36 12.1547 17.5407 3.36 11.6545 17.4684 3.36 
11.1541 17.3983 3.36 10.6535 17.3293 3.36 10.1528 17.2612 3.36 
9.65189 17.1942 3.36 9.15095 17.1276 3.36 8.64992 17.0618 3.36 
8.14889 16.996 3.36 7.6479 16.9299 3.36 7.1469 16.8638 3.36 
6.64613 16.796 3.36 6.14533 16.7285 3.36 5.64461 16.6603 3.36 
5.1439 16.5921 3.36 4.64309 16.5246 3.36 4.14219 16.4578 3.36 
3.6411 16.3924 3.36 3.13983 16.3284 3.36 2.63838 16.2659 3.36 
2.13675 16.2048 3.36 1.63496 16.145 3.36 1.13303 16.0865 3.36 
0.631001 16.0287 3.36 0.128879 15.9722 3.36 -0.374784 15.9713 3.36 
-0.876882 16.0283 3.36 -1.3789 16.0861 3.36 -1.88079 16.145 3.36 
-2.38254 16.2051 3.36 -2.88412 16.2666 3.36 -3.38549 16.3298 3.36 
-3.88669 16.3943 3.36 -4.3877 16.4603 3.36 -4.88856 16.5274 3.36 
-5.38934 16.5951 3.36 -5.89002 16.6635 3.36 -6.39083 16.7311 3.36 
-6.89161 16.7988 3.36 -7.39248 16.8658 3.36 -7.89353 16.9315 3.36 
-8.39453 16.9975 3.36 -8.89561 17.063 3.36 -9.3966 17.1292 3.36 
-9.89752 17.1958 3.36 -10.3983 17.2632 3.36 -10.899 17.3318 3.36 
-11.3995 17.4012 3.36 -11.8999 17.4722 3.36 -12.3999 17.5453 3.36 
-12.8995 17.621 3.36 -13.3983 17.702 3.36 -13.8959 17.7903 3.36 
-14.3915 17.8892 3.36 -14.8851 17.997 3.36 14.1649 18.9621 3.36 
13.6697 18.8676 3.36 13.1726 18.7822 3.36 12.6746 18.7028 3.36 
12.1758 18.6287 3.36 11.6768 18.5562 3.36 11.1775 18.4852 3.36 
10.6781 18.4157 3.36 10.1785 18.3469 3.36 9.6788 18.2792 3.36 
9.17897 18.2123 3.36 8.67904 18.1463 3.36 8.17904 18.0807 3.36 
[...]
CELL_DATA 245
FIELD FieldData 2
CellId 1 245 int
0 10 13 50 156 154 155 58 200 
201 203 204 205 206 207 208 209 210 
211 212 213 214 215 216 217 219 222 
224 225 228 230 231 233 234 235 236 
237 238 239 240 241 242 49 2 3 
40 41 48 42 44 46 45 47 43 
229 157 158 159 160 59 220 199 221 
198 232 197 202 161 243 162 163 164 
165 166 167 168 169 170 171 172 173 
174 175 176 177 180 183 182 181 185 
186 187 188 189 190 191 192 193 194 
195 196 8 153 14 151 52 56 51 
53 54 28 55 57 226 142 144 143 
145 223 62 227 61 218 102 103 104 
105 106 107 108 109 110 111 112 113 
114 115 116 117 118 119 121 125 126 
124 123 128 122 129 130 131 132 127 
133 134 135 136 137 138 5 7 15 
25 149 26 146 147 148 27 60 63 
64 65 66 67 68 69 70 71 72 
73 74 75 76 77 79 80 81 83 
86 88 89 90 92 93 94 95 96 
97 98 99 100 17 24 21 20 23 
19 18 22 85 84 78 91 179 178 
184 34 33 31 32 35 37 36 30 
38 101 82 87 141 120 139 140 1 
9 11 12 152 29 244 39 4 6 
16 150 
Length 1 245 float
1.09304 3.27353 4.93574 27.3122 22.3933 19.4437 17.4533 28.7137 30.9676 
32.789 30.3183 28.7426 27.8885 27.5172 27.5044 27.7649 27.5209 27.7846 
27.7906 27.7999 27.9484 27.8905 27.8865 27.8392 28.1853 31.1022 31.4468 
32.0744 32.5123 33.4617 33.4101 34.0047 34.7759 35.174 33.437 29.6155 
25.6384 21.4467 17.054 12.6024 7.98483 1.36984 18.959 5.00571 5.11423 
5.34058 3.94103 3.66277 4.9305 7.79425 4.10838 4.90304 13.3892 3.20354 
9.42415 27.4473 22.7769 19.1414 17.5191 31.416 2.15514 32.6449 0.678584 
32.5614 0.0517501 30.0633 0.0938106 27.74 0.226625 27.77 27.7735 27.505 
28.0214 27.5215 28.0422 27.7925 27.5439 27.5588 28.0287 27.6631 28.0409 
29.4788 31.2526 31.1005 32.0338 32.4509 33.1745 8.45433 3.13721 33.6449 
34.0103 34.4677 35.2195 33.1824 29.3708 25.3849 21.1712 16.7726 12.2853 
7.71043 1.03703 4.06826 10.7796 6.20191 4.57491 6.59917 5.77689 16.0017 
5.9917 2.32476 20.9174 4.21151 17.2271 9.06819 23.8529 19.8635 21.2759 
17.0162 2.60726 32.8816 0.0761106 32.9008 0.925624 31.3629 30.0271 27.925 
27.7709 27.5021 28.0175 27.7708 27.7807 27.9243 27.5397 28.063 27.8223 
28.119 27.9337 28.1568 31.0896 30.7146 30.9551 32.2745 33.375 33.6145 
8.33095 2.33179 33.5734 0.255351 33.904 34.6281 35.0482 31.5918 0.154083 
27.7181 23.64 19.3529 14.8825 10.402 5.49285 0.415874 4.04071 3.57989 
20.2089 13.9628 30.2824 22.1924 19.0962 17.3237 29.2996 32.3971 31.5762 
30.5776 27.925 27.8406 27.7715 27.7605 27.5115 28.0338 27.5311 28.0502 
27.5454 27.8189 27.9004 27.7463 27.8702 31.0326 30.6351 30.9876 32.1596 
33.0101 33.1899 33.4714 33.795 34.85 35.2511 32.6353 28.79 24.7633 
20.5311 16.1222 11.6435 6.94514 3.59077 15.1603 5.18379 7.72795 7.9045 
4.31816 1.48751 3.0722 8.18846 2.57887 0.168668 0.0568438 1.18294 2.45614 
8.74478 3.37312 3.84885 5.52153 6.44576 3.96418 5.85941 5.3256 1.84845 
8.70662 7.95329 2.68399 0.0155976 0.151452 2.74824 7.99747 0.177838 0.0669716 
0.151859 0.0774415 0.156555 0.116199 0.0877977 0.0149937 0.0211051 0.27339 0.16283 
0.195053 0.223074 
