# vtk DataFile Version 4.2
vtk output
ASCII
DATASET POLYDATA
POINTS 26798 float
20 11.1999 0.469443 19.9436 11.2048 0.469443 19.9003 11.2085 0.469443 
19.8503 11.2128 0.469443 19.8006 11.2171 0.469443 19.7507 11.2213 0.469443 
19.7008 11.2255 0.469443 19.651 11.2296 0.469443 19.6011 11.2338 0.469443 
19.5512 11.2379 0.469443 19.5014 11.242 0.469443 19.4515 11.246 0.469443 
19.4016 11.2501 0.469443 19.3517 11.254 0.469443 19.3018 11.2581 0.469443 
19.252 11.262 0.469443 19.2021 11.2659 0.469443 19.1522 11.2698 0.469443 
19.1023 11.2737 0.469443 19.0524 11.2775 0.469443 19.0025 11.2813 0.469443 
18.9526 11.2851 0.469443 18.9027 11.2889 0.469443 18.8528 11.2926 0.469443 
18.8029 11.2963 0.469443 18.753 11.3 0.469443 18.7031 11.3036 0.469443 
18.6532 11.3072 0.469443 18.6033 11.3109 0.469443 18.5533 11.3144 0.469443 
18.5034 11.3179 0.469443 18.4535 11.3214 0.469443 18.4036 11.3249 0.469443 
18.3537 11.3284 0.469443 18.3037 11.3318 0.469443 18.2538 11.3352 0.469443 
18.2039 11.3386 0.469443 18.1539 11.3419 0.469443 18.104 11.3452 0.469443 
18.0541 11.3484 0.469443 18.0041 11.3517 0.469443 17.9542 11.3549 0.469443 
17.9043 11.3581 0.469443 17.8543 11.3612 0.469443 17.8044 11.3644 0.469443 
17.7544 11.3674 0.469443 17.7045 11.3705 0.469443 17.6545 11.3736 0.469443 
17.6046 11.3766 0.469443 17.5546 11.3795 0.469443 17.5047 11.3825 0.469443 
17.4547 11.3854 0.469443 17.4048 11.3883 0.469443 17.3548 11.3912 0.469443 
17.3048 11.394 0.469443 17.2549 11.3968 0.469443 17.2049 11.3996 0.469443 
17.155 11.4023 0.469443 17.105 11.405 0.469443 17.055 11.4077 0.469443 
17.005 11.4104 0.469443 16.9551 11.413 0.469443 16.9051 11.4156 0.469443 
16.8551 11.4181 0.469443 16.8051 11.4207 0.469443 16.7552 11.4231 0.469443 
16.7052 11.4256 0.469443 16.6552 11.428 0.469443 16.6052 11.4304 0.469443 
16.5552 11.4328 0.469443 16.5052 11.4352 0.469443 16.4553 11.4374 0.469443 
16.4053 11.4397 0.469443 16.3553 11.4419 0.469443 16.3053 11.4441 0.469443 
16.2553 11.4462 0.469443 16.2053 11.4484 0.469443 16.1553 11.4504 0.469443 
16.1053 11.4525 0.469443 16.0553 11.4545 0.469443 16.0053 11.4565 0.469443 
15.9553 11.4583 0.469443 15.9053 11.4603 0.469443 15.8553 11.4621 0.469443 
15.8053 11.4639 0.469443 15.7553 11.4657 0.469443 15.7052 11.4674 0.469443 
15.6552 11.4691 0.469443 15.6052 11.4708 0.469443 15.5552 11.4723 0.469443 
15.5052 11.4739 0.469443 15.4552 11.4754 0.469443 15.4051 11.4769 0.469443 
15.3551 11.4784 0.469443 15.3051 11.4798 0.469443 15.2551 11.4811 0.469443 
15.2051 11.4824 0.469443 15.155 11.4837 0.469443 15.105 11.4849 0.469443 
15.055 11.4861 0.469443 15.0049 11.4872 0.469443 14.9549 11.4883 0.469443 
14.9049 11.4893 0.469443 14.8549 11.4903 0.469443 14.8048 11.4912 0.469443 
14.7548 11.4921 0.469443 14.7048 11.4929 0.469443 14.6547 11.4936 0.469443 
14.6047 11.4943 0.469443 14.5546 11.495 0.469443 14.5046 11.4955 0.469443 
14.4546 11.4961 0.469443 14.4045 11.4965 0.469443 14.3545 11.4969 0.469443 
14.3044 11.4972 0.469443 14.2544 11.4974 0.469443 14.2044 11.4976 0.469443 
14.1543 11.4977 0.469443 14.1043 11.4977 0.469443 14.0542 11.4977 0.469443 
14.0042 11.4976 0.469443 13.9542 11.4974 0.469443 13.9041 11.4971 0.469443 
13.8541 11.4967 0.469443 13.804 11.4962 0.469443 13.754 11.4958 0.469443 
13.704 11.4951 0.469443 13.6539 11.4944 0.469443 13.6039 11.4935 0.469443 
13.5539 11.4926 0.469443 13.5038 11.4915 0.469443 13.4538 11.4902 0.469443 
13.4038 11.4889 0.469443 13.3538 11.4874 0.469443 13.3037 11.4858 0.469443 
13.2537 11.484 0.469443 13.2037 11.4822 0.469443 13.1537 11.48 0.469443 
13.1037 11.4779 0.469443 13.0538 11.4754 0.469443 13.0038 11.4729 0.469443 
12.9538 11.47 0.469443 12.9039 11.4671 0.469443 12.8539 11.4638 0.469443 
12.804 11.4605 0.469443 12.7541 11.4566 0.469443 12.7042 11.4528 0.469443 
12.6544 11.4485 0.469443 12.6045 11.4441 0.469443 12.5547 11.4391 0.469443 
12.5049 11.4341 0.469443 12.4552 11.4284 0.469443 12.4055 11.4226 0.469443 
12.3559 11.4162 0.469443 12.3063 11.4095 0.469443 12.2568 11.4021 0.469443 
12.2073 11.3947 0.469443 12.1579 11.3867 0.469443 12.1086 11.3781 0.469443 
12.0594 11.3692 0.469443 12.0103 11.3594 0.469443 11.9612 11.3496 0.469443 
11.9124 11.3385 0.469443 11.8635 11.3279 0.469443 11.815 11.3156 0.469443 
11.7663 11.304 0.469443 11.7177 11.2922 0.469443 11.6694 11.2793 0.469443 
11.6208 11.2672 0.469443 11.5724 11.2545 0.469443 11.5239 11.2423 0.469443 
11.4753 11.2305 0.469443 11.4267 11.2187 0.469443 11.3778 11.208 0.469443 
11.3288 11.1976 0.469443 11.2799 11.1871 0.469443 11.2307 11.1782 0.469443 
11.1814 11.1694 0.469443 11.132 11.1616 0.469443 11.0825 11.1542 0.469443 
11.0329 11.1474 0.469443 10.9833 11.141 0.469443 10.9336 11.1351 0.469443 
10.8838 11.1296 0.469443 10.8341 11.1244 0.469443 10.7843 11.1195 0.469443 
10.7344 11.1149 0.469443 10.6846 11.1104 0.469443 10.6347 11.1063 0.469443 
10.5849 11.1022 0.469443 10.535 11.0983 0.469443 10.4851 11.0945 0.469443 
10.4352 11.0906 0.469443 10.3853 11.0871 0.469443 10.3354 11.0833 0.469443 
10.2854 11.0799 0.469443 10.2355 11.0761 0.469443 10.1856 11.0728 0.469443 
10.1357 11.0691 0.469443 10.0858 11.0658 0.469443 10.0359 11.0621 0.469443 
9.98593 11.0588 0.469443 9.93603 11.0551 0.469443 9.8861 11.0517 0.469443 
9.8362 11.048 0.469443 9.78629 11.0444 0.469443 9.73639 11.0406 0.469443 
9.68649 11.0369 0.469443 9.63661 11.0329 0.469443 9.58673 11.0289 0.469443 
9.53686 11.0247 0.469443 9.487 11.0205 0.469443 9.43714 11.0162 0.469443 
9.3873 11.0117 0.469443 9.33745 11.0073 0.469443 9.28762 11.0027 0.469443 
9.2378 10.998 0.469443 9.18797 10.9934 0.469443 9.13819 10.9884 0.469443 
9.08839 10.9834 0.469443 9.03864 10.9781 0.469443 8.98888 10.9728 0.469443 
8.93915 10.9671 0.469443 8.88943 10.9615 0.469443 8.83974 10.9556 0.469443 
8.79006 10.9496 0.469443 8.7404 10.9434 0.469443 8.69076 10.9371 0.469443 
8.64115 10.9305 0.469443 8.59156 10.9238 0.469443 8.542 10.9169 0.469443 
8.49246 10.9098 0.469443 8.44296 10.9025 0.469443 8.39345 10.8952 0.469443 
8.34396 10.8878 0.469443 8.29452 10.8801 0.469443 8.24506 10.8724 0.469443 
8.19567 10.8644 0.469443 8.14624 10.8566 0.469443 8.09689 10.8483 0.469443 
8.04748 10.8404 0.469443 7.99815 10.832 0.469443 7.94877 10.8239 0.469443 
7.89943 10.8155 0.469443 7.85006 10.8074 0.469443 7.80072 10.799 0.469443 
7.75136 10.7908 0.469443 7.702 10.7826 0.469443 7.6526 10.7746 0.469443 
7.60323 10.7664 0.469443 7.55379 10.7587 0.469443 7.50438 10.7508 0.469443 
7.45489 10.7433 0.469443 7.40542 10.7358 0.469443 7.3559 10.7286 0.469443 
7.30639 10.7214 0.469443 7.25682 10.7145 0.469443 7.20725 10.7076 0.469443 
7.15764 10.7011 0.469443 7.10804 10.6945 0.469443 7.0584 10.6881 0.469443 
7.00874 10.682 0.469443 6.95907 10.6759 0.469443 6.90938 10.6699 0.469443 
6.85969 10.664 0.469443 6.80997 10.6583 0.469443 6.76026 10.6526 0.469443 
6.71052 10.6471 0.469443 6.66078 10.6417 0.469443 6.61102 10.6364 0.469443 
6.56126 10.6311 0.469443 6.51148 10.6259 0.469443 6.46171 10.6207 0.469443 
6.41193 10.6156 0.469443 6.36217 10.6104 0.469443 6.31238 10.6053 0.469443 
6.2626 10.6002 0.469443 6.21283 10.595 0.469443 6.16304 10.5899 0.469443 
6.11327 10.5848 0.469443 6.06348 10.5797 0.469443 6.01371 10.5745 0.469443 
5.96393 10.5695 0.469443 5.91414 10.5644 0.469443 5.86436 10.5593 0.469443 
5.81458 10.5543 0.469443 5.7648 10.5491 0.469443 5.71502 10.544 0.469443 
5.66524 10.5389 0.469443 5.61545 10.5339 0.469443 5.56568 10.5286 0.469443 
5.5159 10.5236 0.469443 5.46613 10.5184 0.469443 5.41635 10.5133 0.469443 
5.36658 10.508 0.469443 5.31681 10.5029 0.469443 5.26703 10.4977 0.469443 
5.21726 10.4925 0.469443 5.16748 10.4874 0.469443 5.11771 10.4822 0.469443 
5.06793 10.4771 0.469443 5.01817 10.4719 0.469443 4.96839 10.4668 0.469443 
4.9186 10.4617 0.469443 4.86881 10.4566 0.469443 4.81903 10.4515 0.469443 
4.76925 10.4464 0.469443 4.71948 10.4413 0.469443 4.6697 10.4362 0.469443 
4.61991 10.4311 0.469443 4.57013 10.426 0.469443 4.52035 10.421 0.469443 
4.47057 10.4159 0.469443 4.42079 10.4108 0.469443 4.37101 10.4056 0.469443 
4.32123 10.4005 0.469443 4.27145 10.3954 0.469443 4.22167 10.3903 0.469443 
4.17189 10.3851 0.469443 4.12211 10.3801 0.469443 4.07233 10.3749 0.469443 
4.02256 10.3698 0.469443 3.97278 10.3646 0.469443 3.92301 10.3594 0.469443 
3.87323 10.3543 0.469443 3.82345 10.3492 0.469443 3.77367 10.3441 0.469443 
3.7239 10.3389 0.469443 3.67411 10.3339 0.469443 3.62432 10.3289 0.469443 
3.57451 10.324 0.469443 3.52471 10.3192 0.469443 3.47489 10.3145 0.469443 
3.42506 10.3098 0.469443 3.37522 10.3054 0.469443 3.32537 10.301 0.469443 
3.27553 10.2966 0.469443 3.22566 10.2924 0.469443 3.17578 10.2884 0.469443 
3.12589 10.2845 0.469443 3.076 10.2805 0.469443 3.02611 10.2767 0.469443 
2.9762 10.273 0.469443 2.92628 10.2695 0.469443 2.87635 10.2662 0.469443 
2.82641 10.2631 0.469443 2.77646 10.2601 0.469443 2.7265 10.2572 0.469443 
2.67653 10.2545 0.469443 2.62656 10.2519 0.469443 2.57658 10.2493 0.469443 
2.5266 10.2469 0.469443 2.47661 10.2447 0.469443 2.42661 10.2426 0.469443 
2.37661 10.2406 0.469443 2.3266 10.2387 0.469443 2.2766 10.2368 0.469443 
2.22659 10.235 0.469443 2.17657 10.2333 0.469443 2.12655 10.2319 0.469443 
2.07653 10.2306 0.469443 2.0265 10.2294 0.469443 1.97648 10.2281 0.469443 
1.92644 10.2272 0.469443 1.87641 10.2261 0.469443 1.82638 10.2253 0.469443 
1.77635 10.2244 0.469443 1.72631 10.2236 0.469443 1.67627 10.2229 0.469443 
1.62624 10.2223 0.469443 1.5762 10.2217 0.469443 1.52616 10.2216 0.469443 
1.47612 10.2212 0.469443 1.42608 10.2213 0.469443 1.37604 10.2211 0.469443 
1.32599 10.221 0.469443 1.27595 10.2207 0.469443 1.22591 10.2203 0.469443 
1.17588 10.2198 0.469443 1.12584 10.2192 0.469443 1.0758 10.2186 0.469443 
1.02576 10.2179 0.469443 0.975726 10.2173 0.469443 0.925687 10.2168 0.469443 
0.87565 10.2162 0.469443 0.825612 10.2156 0.469443 0.775574 10.215 0.469443 
0.725535 10.2144 0.469443 0.675497 10.2139 0.469443 0.625458 10.2134 0.469443 
0.575418 10.213 0.469443 0.525378 10.2126 0.469443 0.475338 10.2122 0.469443 
[...]
CELL_DATA 40
FIELD FieldData 2
CellId 1 40 int
36 30 31 32 33 18 17 34 22 
23 35 16 19 8 9 37 1 0 
38 10 7 12 26 27 28 29 20 
14 13 21 24 25 15 6 5 4 
2 3 39 11 
Length 1 40 float
66.8891 76.0418 79.3088 81.8243 82.1648 36.4321 30.4015 27.8834 11.2944 
1.04224 18.4123 6.35699 19.9393 36.4321 30.4015 27.8834 11.2944 1.04224 
18.4123 6.35699 19.9393 66.8891 76.0418 79.3088 81.8243 82.1648 36.4321 
30.4015 27.8834 11.2944 1.04224 18.4123 6.35699 36.4321 30.4015 27.8834 
11.2944 1.04224 18.4123 6.35699 
