# vtk DataFile Version 4.2
vtk output
ASCII
DATASET POLYDATA
POINTS 9426 float
2.80058 2.69942 5.28 2.4515 2.33528 5.28 2.09956 1.96118 5.28 
1.71713 1.61786 5.28 1.31924 1.29222 5.28 0.904106 0.98985 5.28 
0.449368 0.750871 5.28 -0.0330825 0.578632 5.28 -0.528584 0.691188 5.28 
-0.98598 0.925362 5.28 -1.40922 1.21645 5.28 -1.80113 1.54949 5.28 
-2.16581 1.9119 5.28 -2.49712 2.30477 5.28 -2.83854 2.66146 5.28 
2.60955 3.39045 5.28 2.12498 3.19644 5.28 1.63756 2.98861 5.28 
1.16751 2.74345 5.28 0.74695 2.42205 5.28 0.390851 2.0292 5.28 
-0.00693458 1.68378 5.28 -0.464745 1.88944 5.28 -0.822038 2.28135 5.28 
-1.22513 2.62458 5.28 -1.67655 2.90242 5.28 -2.14905 3.14273 5.28 
-2.62093 3.37907 5.28 4.0959 4.6541 5.28 3.71342 4.32642 5.28 
3.21651 4.19534 5.28 2.70282 4.12796 5.28 2.18577 4.09754 5.28 
1.67262 4.02675 5.28 1.16381 3.92929 5.28 0.667192 3.78346 5.28 
0.201501 3.55797 5.28 -0.265546 3.42373 5.28 -0.707772 3.69219 5.28 
-1.19441 3.86805 5.28 -1.69787 3.98968 5.28 -2.20727 4.08356 5.28 
-2.72393 4.11804 5.28 -3.23879 4.17673 5.28 -3.7213 4.30686 5.28 
-4.10492 4.64508 5.28 6.04263 6.45737 5.28 5.63722 6.17062 5.28 
5.24484 5.85832 5.28 4.79432 5.65989 5.28 4.30903 5.5433 5.28 
3.82246 5.42006 5.28 3.33569 5.29746 5.28 2.84475 5.19388 5.28 
2.34549 5.14307 5.28 1.84537 5.09959 5.28 1.34662 5.04246 5.28 
0.849278 4.97411 5.28 0.355661 4.88299 5.28 -0.133545 4.78647 5.28 
-0.623922 4.8846 5.28 -1.11793 4.97362 5.28 -1.61499 5.04396 5.28 
-2.11398 5.09884 5.28 -2.61418 5.14138 5.28 -3.1096 5.22021 5.28 
-3.59633 5.34283 5.28 -4.08372 5.46284 5.28 -4.56654 5.59711 5.28 
-5.02602 5.61185 5.28 -5.39219 5.94906 5.28 -5.76947 6.27882 5.28 
-6.11607 6.63393 5.28 7.98136 9.01864 5.28 7.61564 8.6804 5.28 
7.21939 8.37271 5.28 6.82052 8.06823 5.28 6.41552 7.77201 5.28 
5.99903 7.49226 5.28 5.56295 7.24418 5.28 5.11634 7.01538 5.28 
4.66392 6.79831 5.28 4.20354 6.59928 5.28 3.72131 6.46165 5.28 
3.22928 6.36294 5.28 2.73513 6.27558 5.28 2.23766 6.20991 5.28 
1.73872 6.15618 5.28 1.23937 6.10634 5.28 0.740089 6.0558 5.28 
0.240969 6.00374 5.28 -0.259171 5.97621 5.28 -0.758051 6.03054 5.28 
-1.25717 6.08265 5.28 -1.75642 6.13347 5.28 -2.25531 6.18767 5.28 
-2.75266 6.25424 5.28 -3.24664 6.3426 5.28 -3.73852 6.44199 5.28 
-4.2205 6.58044 5.28 -4.68029 6.78089 5.28 -5.13204 6.99933 5.28 
-5.57981 7.22587 5.28 -6.01958 7.46728 5.28 -6.4347 7.74884 5.28 
-6.8335 8.05323 5.28 -7.22655 8.36517 5.28 -7.61422 8.68355 5.28 
-7.96707 9.03293 5.28 10.3198 10.6802 5.28 9.92154 10.3888 5.28 
9.53381 10.0619 5.28 9.04891 9.96266 5.28 8.5757 9.78707 5.28 
8.10618 9.59806 5.28 7.60434 9.53476 5.28 7.12301 9.37915 5.28 
6.6783 9.13489 5.28 6.24378 8.87268 5.28 5.81037 8.6086 5.28 
5.37605 8.34603 5.28 4.93139 8.10163 5.28 4.47141 7.8873 5.28 
3.99912 7.70166 5.28 3.51466 7.55073 5.28 3.0211 7.43273 5.28 
2.5217 7.34249 5.28 2.01923 7.27111 5.28 1.51499 7.21347 5.28 
1.0098 7.16477 5.28 0.504129 7.1213 5.28 -0.00191379 7.08249 5.28 
-0.50873 7.10172 5.28 -1.01451 7.14388 5.28 -1.51977 7.19185 5.28 
-2.02406 7.24902 5.28 -2.5266 7.31992 5.28 -3.02606 7.40982 5.28 
-3.5197 7.52746 5.28 -4.00418 7.67833 5.28 -4.47651 7.86387 5.28 
-4.93668 8.07781 5.28 -5.38141 8.32205 5.28 -5.81543 8.58512 5.28 
-6.24791 8.85072 5.28 -6.6809 9.11545 5.28 -7.12441 9.36197 5.28 
-7.60819 9.50527 5.28 -8.10922 9.56731 5.28 -8.57342 9.76894 5.28 
-9.01813 9.98187 5.28 15.6111 17.6218 5.28 15.3921 17.1666 5.28 
15.157 16.7195 5.28 14.8945 16.288 5.28 14.6189 15.8648 5.28 
14.3311 15.4496 5.28 14.0249 15.048 5.28 13.7039 14.658 5.28 
13.374 14.2754 5.28 13.0306 13.9051 5.28 12.6728 13.5485 5.28 
12.3053 13.202 5.28 11.9264 12.8679 5.28 11.536 12.5473 5.28 
11.1351 12.2401 5.28 10.7204 11.952 5.28 10.2818 11.7016 5.28 
9.8281 11.4796 5.28 9.36968 11.2676 5.28 8.89814 11.0868 5.28 
8.42083 10.9214 5.28 7.95209 10.7333 5.28 7.48151 10.5498 5.28 
7.00908 10.371 5.28 6.54692 10.1672 5.28 6.09875 9.93428 5.28 
5.65614 9.69083 5.28 5.21379 9.44689 5.28 4.76625 9.21265 5.28 
4.30885 8.99845 5.28 3.83999 8.8107 5.28 3.36008 8.65331 5.28 
2.87127 8.52624 5.28 2.37602 8.4271 5.28 1.87697 8.34899 5.28 
1.37559 8.2875 5.28 0.872993 8.23685 5.28 0.369804 8.19242 5.28 
-0.13422 8.16273 5.28 -0.638046 8.19477 5.28 -1.14105 8.24123 5.28 
-1.64323 8.29577 5.28 -2.14358 8.36512 5.28 -2.64106 8.45261 5.28 
-3.13334 8.56555 5.28 -3.61759 8.70902 5.28 -4.09213 8.88188 5.28 
-4.55504 9.08391 5.28 -5.00648 9.3105 5.28 -5.45032 9.5517 5.28 
-5.89202 9.7968 5.28 -6.33662 10.0366 5.28 -6.79227 10.2543 5.28 
-7.26073 10.443 5.28 -7.73456 10.6181 5.28 -8.20177 10.8101 5.28 
-8.67551 10.9853 5.28 -9.15187 11.1532 5.28 -9.61679 11.3505 5.28 
-10.0726 11.5682 5.28 -10.5178 11.8063 5.28 -10.9376 12.0869 5.28 
-11.3392 12.3932 5.28 -11.736 12.7057 5.28 -12.1241 13.029 5.28 
-12.4998 13.3667 5.28 -12.8641 13.7166 5.28 -13.2134 14.0814 5.28 
-13.5485 14.4594 5.28 -13.876 14.844 5.28 -14.1942 15.2363 5.28 
-14.496 15.6413 5.28 -14.7823 16.0574 5.28 -15.0572 16.4812 5.28 
-15.3063 16.9205 5.28 -15.5333 17.3718 5.28 14.9308 18.6484 5.28 
14.6953 18.2062 5.28 14.4665 17.7603 5.28 14.2354 17.3157 5.28 
13.9752 16.8876 5.28 13.7057 16.4651 5.28 13.4236 16.0511 5.28 
13.1152 15.6562 5.28 12.7956 15.2703 5.28 12.4823 14.8792 5.28 
12.1555 14.4995 5.28 11.8022 14.1442 5.28 11.434 13.8044 5.28 
11.0515 13.4807 5.28 10.6521 13.1782 5.28 10.2319 12.9055 5.28 
9.78917 12.671 5.28 9.33625 12.4566 5.28 8.87926 12.2511 5.28 
8.41316 12.0673 5.28 7.94318 11.8934 5.28 7.47529 11.7141 5.28 
7.00891 11.5308 5.28 6.5488 11.3326 5.28 6.10676 11.097 5.28 
5.68241 10.8307 5.28 5.24645 10.5837 5.28 4.79978 10.3567 5.28 
4.34297 10.1508 5.28 3.87738 9.9657 5.28 3.40368 9.80252 5.28 
2.92184 9.66519 5.28 2.43306 9.55499 5.28 1.93995 9.46598 5.28 
1.44393 9.39489 5.28 0.946059 9.33808 5.28 0.447564 9.28699 5.28 
-0.0516465 9.2452 5.28 -0.551318 9.27429 5.28 -1.04977 9.32584 5.28 
-1.54742 9.38446 5.28 -2.04294 9.45893 5.28 -2.5355 9.55091 5.28 
-3.02301 9.66664 5.28 -3.50346 9.80885 5.28 -3.97554 9.97682 5.28 
-4.43902 10.1673 5.28 -4.89319 10.3789 5.28 -5.33845 10.6087 5.28 
-5.77014 10.8628 5.28 -6.19861 11.1226 5.28 -6.64471 11.3505 5.28 
-7.10712 11.5435 5.28 -7.57364 11.7264 5.28 -8.04222 11.904 5.28 
-8.51176 12.079 5.28 -8.97664 12.2658 5.28 -9.43178 12.4755 5.28 
-9.88318 12.693 5.28 -10.3218 12.935 5.28 -10.7373 13.2149 5.28 
-11.1331 13.5221 5.28 -11.5135 13.8483 5.28 -11.8808 14.189 5.28 
-12.2314 14.5469 5.28 -12.5555 14.9291 5.28 -12.8703 15.3189 5.28 
-13.1906 15.7042 5.28 -13.4953 16.1019 5.28 -13.7752 16.5175 5.28 
-14.0438 16.9405 5.28 -14.3005 17.3707 5.28 -14.5303 17.816 5.28 
-14.7618 18.2604 5.28 -15.0034 18.6994 5.28 5.38025 11.6198 5.28 
4.92322 11.4091 5.28 4.44774 11.2353 5.28 3.96803 11.0734 5.28 
3.48402 10.9247 5.28 2.99511 10.793 5.28 2.5012 10.6815 5.28 
2.00335 10.589 5.28 1.50297 10.5114 5.28 1.0004 10.4495 5.28 
0.497212 10.3928 5.28 -0.00644783 10.3407 5.28 -0.511362 10.3693 5.28 
-1.01454 10.4261 5.28 -1.51705 10.4884 5.28 -2.01739 10.5663 5.28 
-2.51512 10.6594 5.28 -3.00888 10.7715 5.28 -3.4975 10.9044 5.28 
-3.98125 11.054 5.28 -4.4609 11.2162 5.28 -4.93518 11.3931 5.28 
-5.38955 11.6104 5.28 13.7779 18.7046 5.28 13.5379 18.2656 5.28 
13.2982 17.8264 5.28 13.0508 17.3915 5.28 12.787 16.9665 5.28 
12.5025 16.555 5.28 12.2012 16.1556 5.28 11.8868 15.7664 5.28 
11.5609 15.3869 5.28 11.2174 15.0232 5.28 10.8537 14.6797 5.28 
10.4679 14.3613 5.28 10.0609 14.0705 5.28 9.63409 13.8097 5.28 
9.19253 13.5746 5.28 8.73852 13.3645 5.28 8.27682 13.1718 5.28 
7.80885 12.9948 5.28 7.33841 12.8245 5.28 6.86356 12.667 5.28 
6.38505 12.5211 5.28 5.89924 12.4023 5.28 5.40235 12.3475 5.28 
4.9055 12.2932 5.28 4.41439 12.198 5.28 3.92655 12.0872 5.28 
3.43918 11.9742 5.28 2.95026 11.8681 5.28 2.45884 11.7743 5.28 
1.9655 11.691 5.28 1.47042 11.6189 5.28 0.973798 11.5582 5.28 
0.47676 11.501 5.28 -0.0207486 11.4491 5.28 -0.519451 11.4798 5.28 
-1.01645 11.5374 5.28 -1.51297 11.5988 5.28 -2.00784 11.6724 5.28 
-2.50109 11.7562 5.28 -2.99219 11.8517 5.28 -3.48075 11.9594 5.28 
-3.96807 12.0727 5.28 -4.4558 12.184 5.28 -4.94723 12.2774 5.28 
-5.44458 12.3274 5.28 -5.9414 12.3822 5.28 -6.42607 12.5056 5.28 
-6.90404 12.6533 5.28 -7.37833 12.8125 5.28 -7.84848 12.9836 5.28 
-8.31614 13.1614 5.28 -8.7773 13.3553 5.28 -9.23063 13.5669 5.28 
-9.67136 13.8036 5.28 -10.097 14.0664 5.28 -10.5028 14.3589 5.28 
-10.8875 14.6786 5.28 -11.2506 15.0226 5.28 -11.594 15.3864 5.28 
-11.92 15.7659 5.28 -12.2347 16.1549 5.28 -12.5359 16.5543 5.28 
-12.8197 16.9663 5.28 -13.0829 17.3917 5.28 -13.3297 17.8269 5.28 
-13.5695 18.266 5.28 -13.8103 18.7046 5.28 13.6371 20.2598 5.28 
13.3229 19.8677 5.28 13.0372 19.4544 5.28 12.7749 19.0256 5.28 
12.5298 18.5869 5.28 12.285 18.1479 5.28 12.0325 17.7134 5.28 
11.7625 17.2895 5.28 11.4735 16.8784 5.28 11.164 16.4824 5.28 
10.8335 16.1039 5.28 10.4795 15.7473 5.28 10.1021 15.4155 5.28 
9.70109 15.1127 5.28 9.27949 14.8393 5.28 8.83982 14.5959 5.28 
8.38725 14.3775 5.28 7.92409 14.1824 5.28 7.4543 14.0038 5.28 
6.97858 13.8417 5.28 6.49783 13.6952 5.28 6.01278 13.5636 5.28 
5.52352 13.4487 5.28 5.03145 13.3464 5.28 4.53857 13.248 5.28 
4.04532 13.1515 5.28 3.55145 13.0582 5.28 3.05701 12.968 5.28 
2.56131 12.8852 5.28 2.06436 12.8101 5.28 1.5664 12.7419 5.28 
1.06742 12.6818 5.28 0.568032 12.6251 5.28 0.0684541 12.5691 5.28 
-0.432709 12.5841 5.28 -0.932153 12.6402 5.28 -1.43132 12.6989 5.28 
-1.92949 12.7654 5.28 -2.42665 12.8391 5.28 -2.92279 12.9194 5.28 
-3.41736 13.0088 5.28 -3.91129 13.1017 5.28 -4.40468 13.1975 5.28 
-4.89776 13.2948 5.28 -5.39028 13.395 5.28 -5.88044 13.506 5.28 
-6.36681 13.6326 5.28 -6.8487 13.7753 5.28 -7.32607 13.9324 5.28 
-7.79762 14.1063 5.28 -8.26288 14.2963 5.28 -8.71887 14.5076 5.28 
-9.16262 14.7434 5.28 -9.58978 15.0079 5.28 -9.99778 15.3012 5.28 
-10.3825 15.6245 5.28 -10.7438 15.9737 5.28 -11.0818 16.3456 5.28 
-11.3979 16.7363 5.28 -11.6935 17.1427 5.28 -11.9695 17.5627 5.28 
-12.2266 17.9945 5.28 -12.4734 18.4323 5.28 -12.7169 18.872 5.28 
[...]
CELL_DATA 251
FIELD FieldData 2
CellId 1 251 int
7 6 8 13 18 21 33 141 192 
142 143 144 145 146 147 191 190 189 
188 148 149 150 151 152 153 155 162 
167 168 169 170 171 172 173 186 177 
185 178 183 181 9 165 14 17 166 
22 31 164 26 28 163 25 27 201 
202 154 203 32 204 205 209 207 206 
208 210 211 212 213 214 215 220 224 
248 225 228 218 229 217 230 231 216 
232 233 234 235 247 238 244 219 239 
242 243 194 175 187 176 184 179 180 
182 4 5 159 12 19 158 20 35 
157 91 92 160 200 93 94 95 161 
96 156 34 97 98 102 100 99 101 
103 104 105 106 107 108 110 117 113 
120 112 119 111 118 123 140 124 125 
126 138 139 127 128 131 130 137 129 
132 133 136 134 135 1 3 2 11 
15 16 23 38 39 24 40 42 43 
44 45 46 72 73 74 75 47 48 
49 50 51 52 54 61 57 69 68 
67 66 65 64 78 88 89 80 79 
87 86 81 82 84 83 85 10 62 
56 55 70 71 41 29 30 223 227 
222 226 249 250 236 246 221 237 245 
240 241 0 76 77 59 58 53 60 
90 36 37 115 121 122 114 109 116 
195 193 174 196 197 198 63 199 
Length 1 251 float
7.15748 6.31791 8.72849 12.9731 17.5515 20.7509 37.8818 37.0771 11.1331 
33.0159 33.6703 33.7097 31.8833 32.7849 32.7809 24.2414 20.0841 16.5618 
14.7821 28.2403 28.2916 28.7383 28.6358 28.9101 29.7619 39.0084 54.8859 
50.781 43.6429 40.1349 36.6428 33.1111 29.4444 12.8998 6.06811 9.69469 
5.03277 5.79246 3.42115 1.25758 5.96754 19.3941 10.9301 19.1193 18.5739 
20.6132 39.3749 11.3968 34.2397 33.0105 18.5531 11.0015 33.9423 34.0656 
33.8768 0.696148 31.7049 2.5837 33.0701 29.5631 27.9375 17.9108 18.0373 
14.4205 27.9865 28.0821 28.8379 28.6931 29.0766 30.1789 45.3543 56.6842 
0.278432 46.6385 42.4372 14.5667 18.9753 10.3031 18.211 38.9563 3.7369 
35.4668 31.8961 28.1986 12.5461 5.46891 8.81797 4.78872 0.904081 4.96298 
2.83865 0.586554 0.0894165 12.8458 5.31213 9.16884 4.98153 5.03529 2.9937 
0.781145 5.45871 4.12208 19.3154 11.1608 19.2114 18.5098 22.7664 40.2717 
10.9479 37.6135 33.2473 18.3001 10.9439 33.538 34.0554 33.8347 1.39365 
31.5169 0.465344 0.437163 32.7705 29.5653 28.0144 17.6296 18.0515 14.5585 
28.2431 28.6458 28.5206 28.7392 29.4351 29.4989 43.0506 53.4256 50.2715 
42.2598 19.037 18.8939 11.0928 18.152 38.7606 1.53291 35.2702 31.6707 
27.9622 6.28631 11.8987 10.8775 4.55823 8.77516 8.05018 3.7724 5.91522 
4.83709 2.13901 2.49687 1.65436 0.311522 7.11823 3.37687 3.36753 8.9583 
14.0111 17.566 22.4325 37.1326 36.6967 10.862 32.9398 33.7007 33.7482 
31.5589 33.0355 32.8299 23.9428 19.7338 16.2282 14.538 28.2318 28.3243 
28.1827 28.6923 28.9943 29.9076 41.259 57.0622 51.1285 42.9122 39.4117 
35.9261 32.369 28.6998 12.8367 12.4253 5.65833 5.04199 9.12308 8.51309 
5.11837 3.98859 5.23524 4.70489 3.08486 2.35098 0.591927 4.11372 19.0784 
18.3193 11.3039 15.3553 1.37039 0.167918 1.76708 1.50906 19.0613 18.9639 
10.9628 18.2279 0.989016 0.414439 12.0018 4.63117 0.909326 8.21878 3.78569 
4.18016 1.98153 2.55262 19.2126 16.3659 11.7766 18.2545 0.536349 1.07661 
1.14419 1.99651 0.816835 15.3201 18.9639 11.0564 18.1745 1.95381 0.367726 
0.0697975 0.155355 0.20959 0.116966 0.143567 0.0975287 0.208966 0.0103218 
