# vtk DataFile Version 4.2
vtk output
ASCII
DATASET POLYDATA
POINTS 9331 float
2.13685 -0.113145 0.48 1.63979 -0.0417103 0.48 1.20039 0.265766 0.48 
0.745147 0.545279 0.48 0.282316 0.813084 0.48 -0.216901 0.940775 0.48 
-0.667507 0.659233 0.48 -1.11485 0.369847 0.48 -1.14489 0.105115 0.48 
2.94456 0.555438 0.48 2.49367 0.538493 0.48 2.07039 0.858407 0.48 
1.6627 1.19857 0.48 1.25058 1.53337 0.48 0.83899 1.86883 0.48 
0.446528 2.22638 0.48 -0.00194891 2.49805 0.48 0.0791245 3.5 0.48 
0.548437 3.30168 0.48 1.01874 3.10737 0.48 1.45324 2.84104 0.48 
1.85598 2.52877 0.48 2.23204 2.18448 0.48 2.58768 1.81931 0.48 
2.90167 1.4182 0.48 3.13813 0.968499 0.48 3.18252 0.473306 0.48 
3.44089 0.0257095 0.48 3.35957 -0.457415 0.48 3.17212 -0.931447 0.48 
2.93463 -1.38179 0.48 2.63017 -1.79021 0.48 2.28033 -2.16093 0.48 
1.90768 -2.5089 0.48 1.51019 -2.82803 0.48 1.08269 -3.10551 0.48 
0.632364 -3.34446 0.48 0.167924 -3.53855 0.48 -0.305423 -3.3822 0.48 
-0.783738 -3.20558 0.48 -1.23821 -2.97541 0.48 -1.65668 -2.68443 0.48 
-2.04425 -2.35327 0.48 -2.41113 -1.9992 0.48 -2.75146 -1.61977 0.48 
-3.02994 -1.19371 0.48 -3.1978 -0.713965 0.48 -3.30268 -0.231176 0.48 
-3.46855 0.236478 0.48 -3.26306 0.702067 0.48 -3.06143 1.16965 0.48 
-2.79101 1.6011 0.48 -2.45903 1.98782 0.48 -2.0953 2.34513 0.48 
-1.7114 2.68055 0.48 -1.29885 2.97993 0.48 -0.858361 3.23651 0.48 
-0.402158 3.46253 0.48 0.0791245 3.5 0.48 0.248481 4.50152 0.48 
-0.2416 4.5733 0.48 -0.719086 4.42341 0.48 -1.19136 4.25735 0.48 
-1.64927 4.05554 0.48 -2.08562 3.81069 0.48 -2.49375 3.52091 0.48 
-2.87248 3.19366 0.48 -3.21937 2.83282 0.48 -3.53168 2.44166 0.48 
-3.80676 2.02347 0.48 -4.03867 1.5799 0.48 -4.22828 1.11672 0.48 
-4.38841 0.642397 0.48 -4.51996 0.161578 0.48 -4.41802 -0.323153 0.48 
-4.27798 -0.803841 0.48 -4.12266 -1.27971 0.48 -3.92589 -1.73992 0.48 
-3.67885 -2.17517 0.48 -3.38878 -2.58291 0.48 -3.06326 -2.96312 0.48 
-2.70187 -3.30933 0.48 -2.3097 -3.62038 0.48 -1.88684 -3.88774 0.48 
-1.43804 -4.10857 0.48 -0.968134 -4.28081 0.48 -0.488793 -4.42532 0.48 
-0.00855748 -4.56768 0.48 0.480796 -4.49441 0.48 0.955956 -4.33676 0.48 
1.4227 -4.15598 0.48 1.8709 -3.93349 0.48 2.29257 -3.66407 0.48 
2.68663 -3.35538 0.48 3.0496 -3.01075 0.48 3.37759 -2.63279 0.48 
3.67322 -2.22899 0.48 3.92651 -1.79733 0.48 4.13589 -1.34288 0.48 
4.31026 -0.873733 0.48 4.46552 -0.398274 0.48 4.49018 0.090429 0.48 
4.34637 0.569858 0.48 4.20277 1.04944 0.48 4.03081 1.51947 0.48 
3.80793 1.96759 0.48 3.53943 2.38988 0.48 3.23132 2.78436 0.48 
2.8871 3.14775 0.48 2.51008 3.47701 0.48 2.10276 3.76791 0.48 
1.66671 4.01341 0.48 1.20581 4.20835 0.48 0.729278 4.36212 0.48 
0.248481 4.50152 0.48 0.207355 5.54264 0.48 -0.293481 5.57018 0.48 
-0.786865 5.4691 0.48 -1.27652 5.35128 0.48 -1.75636 5.1985 0.48 
-2.22051 5.0032 0.48 -2.66389 4.76455 0.48 -3.08288 4.48527 0.48 
-3.47421 4.16838 0.48 -3.83555 3.81763 0.48 -4.16776 3.43916 0.48 
-4.46875 3.03544 0.48 -4.73782 2.60982 0.48 -4.97084 2.16348 0.48 
-5.16286 1.698 0.48 -5.3126 1.21721 0.48 -5.43092 0.727658 0.48 
-5.52529 0.233166 0.48 -5.48197 -0.266683 0.48 -5.38636 -0.761196 0.48 
-5.26956 -1.25113 0.48 -5.11816 -1.73142 0.48 -4.92414 -2.19612 0.48 
-4.68788 -2.64078 0.48 -4.4157 -3.06438 0.48 -4.11146 -3.46566 0.48 
-3.77552 -3.84084 0.48 -3.41018 -4.18738 0.48 -3.01505 -4.49956 0.48 
-2.59162 -4.77213 0.48 -2.14397 -5.00255 0.48 -1.67655 -5.18965 0.48 
-1.19377 -5.3328 0.48 -0.702957 -5.44576 0.48 -0.207489 -5.53635 0.48 
0.292909 -5.56408 0.48 0.786684 -5.46276 0.48 1.27633 -5.34488 0.48 
1.75614 -5.192 0.48 2.22031 -4.99672 0.48 2.66359 -4.7579 0.48 
3.08256 -4.47859 0.48 3.47386 -4.16166 0.48 3.83519 -3.8109 0.48 
4.16743 -3.43246 0.48 4.46878 -3.02899 0.48 4.73757 -2.60317 0.48 
4.97054 -2.15681 0.48 5.16251 -1.69132 0.48 5.31232 -1.21056 0.48 
5.43111 -0.72113 0.48 5.52475 -0.226602 0.48 5.48077 0.273163 0.48 
5.38568 0.767775 0.48 5.26937 1.25782 0.48 5.11813 1.73817 0.48 
4.92414 2.20288 0.48 4.68787 2.64755 0.48 4.41552 3.07103 0.48 
4.11149 3.47246 0.48 3.77557 3.84764 0.48 3.41018 4.19414 0.48 
3.01503 4.50629 0.48 2.59159 4.77885 0.48 2.14389 5.00921 0.48 
1.67655 5.19648 0.48 1.19371 5.33949 0.48 0.702848 5.45237 0.48 
0.207355 5.54264 0.48 0.150732 6.59927 0.48 -0.348668 6.6012 0.48 
-0.844001 6.53199 0.48 -1.33582 6.43975 0.48 -1.82094 6.31758 0.48 
-2.29448 6.15605 0.48 -2.75443 5.95907 0.48 -3.19638 5.72446 0.48 
-3.61743 5.45422 0.48 -4.0159 5.15163 0.48 -4.39071 4.82012 0.48 
-4.74018 4.462 0.48 -5.06341 4.08002 0.48 -5.36032 3.6773 0.48 
-5.63065 3.25624 0.48 -5.86865 2.8161 0.48 -6.07431 2.36003 0.48 
-6.24362 1.88932 0.48 -6.37373 1.40628 0.48 -6.47107 0.915474 0.48 
-6.54381 0.420308 0.48 -6.5599 -0.078608 0.48 -6.49915 -0.575455 0.48 
-6.41752 -1.06914 0.48 -6.31263 -1.55836 0.48 -6.16861 -2.03753 0.48 
-5.98766 -2.504 0.48 -5.7699 -2.9545 0.48 -5.52042 -3.38821 0.48 
-5.24102 -3.8033 0.48 -4.93435 -4.19869 0.48 -4.6017 -4.57248 0.48 
-4.24282 -4.92115 0.48 -3.85918 -5.24237 0.48 -3.45175 -5.53267 0.48 
-3.02296 -5.79047 0.48 -2.57345 -6.01023 0.48 -2.10765 -6.19267 0.48 
-1.62923 -6.33893 0.48 -1.14122 -6.449 0.48 -0.647651 -6.53166 0.48 
-0.151001 -6.59272 0.48 0.348056 -6.5947 0.48 0.843705 -6.5252 0.48 
1.3355 -6.43281 0.48 1.82065 -6.31075 0.48 2.29417 -6.14914 0.48 
2.75409 -5.9521 0.48 3.19606 -5.71752 0.48 3.61712 -5.44729 0.48 
4.01558 -5.14469 0.48 4.39039 -4.81318 0.48 4.7399 -4.45511 0.48 
5.06321 -4.0732 0.48 5.36007 -3.67044 0.48 5.63056 -3.2495 0.48 
5.86872 -2.80944 0.48 6.07444 -2.35338 0.48 6.24358 -1.88261 0.48 
6.37358 -1.39955 0.48 6.47111 -0.908779 0.48 6.54425 -0.413657 0.48 
6.55914 0.0852659 0.48 6.49864 0.582141 0.48 6.41722 1.07586 0.48 
6.31241 1.56508 0.48 6.16834 2.04423 0.48 5.98734 2.51066 0.48 
5.76971 2.96121 0.48 5.52039 3.39501 0.48 5.2409 3.81004 0.48 
4.93428 4.20547 0.48 4.60161 4.57924 0.48 4.24269 4.92787 0.48 
3.859 5.24903 0.48 3.45154 5.53929 0.48 3.02268 5.797 0.48 
2.57319 6.01679 0.48 2.10738 6.19924 0.48 1.62893 6.34536 0.48 
1.14095 6.45561 0.48 0.647759 6.53813 0.48 0.150732 6.59927 0.48 
0.0679076 7.68209 0.48 -0.434488 7.66733 0.48 -0.93442 7.60552 0.48 
-1.43144 7.5244 0.48 -1.92251 7.41296 0.48 -2.40466 7.26781 0.48 
-2.87566 7.08978 0.48 -3.33353 6.88035 0.48 -3.77625 6.64042 0.48 
-4.20123 6.3702 0.48 -4.60709 6.07209 0.48 -4.99159 5.74686 0.48 
-5.35245 5.39562 0.48 -5.6936 5.02521 0.48 -6.01049 4.6338 0.48 
-6.30425 4.22476 0.48 -6.57394 3.79942 0.48 -6.81666 3.35817 0.48 
-7.02885 2.90151 0.48 -7.20972 2.43158 0.48 -7.35706 1.95004 0.48 
-7.47239 1.45985 0.48 -7.55435 0.96292 0.48 -7.6175 0.46327 0.48 
-7.63872 -0.0392084 0.48 -7.58945 -0.540497 0.48 -7.52249 -1.03968 0.48 
-7.43426 -1.53548 0.48 -7.31432 -2.02457 0.48 -7.1604 -2.50408 0.48 
-6.97412 -2.97196 0.48 -6.75538 -3.42554 0.48 -6.50715 -3.86368 0.48 
-6.23323 -4.28627 0.48 -5.93484 -4.69197 0.48 -5.61325 -5.07952 0.48 
-5.26885 -5.44698 0.48 -4.90234 -5.79235 0.48 -4.51349 -6.11234 0.48 
-4.10261 -6.40344 0.48 -3.67467 -6.66875 0.48 -3.2291 -6.90341 0.48 
-2.76814 -7.10625 0.48 -2.29424 -7.27663 0.48 -1.80967 -7.41365 0.48 
-1.31718 -7.51859 0.48 -0.819375 -7.59494 0.48 -0.319102 -7.65303 0.48 
0.183445 -7.68083 0.48 0.68444 -7.6317 0.48 1.18304 -7.56069 0.48 
1.67773 -7.46641 0.48 2.16423 -7.33656 0.48 2.64139 -7.17574 0.48 
3.10628 -6.98233 0.48 3.55676 -6.75733 0.48 3.99077 -6.50189 0.48 
4.40619 -6.21723 0.48 4.80189 -5.90576 0.48 5.1751 -5.5676 0.48 
5.52615 -5.20649 0.48 5.85478 -4.82487 0.48 6.16022 -4.42447 0.48 
6.44218 -4.00718 0.48 6.69792 -3.57338 0.48 6.92591 -3.12447 0.48 
7.1226 -2.66098 0.48 7.28689 -2.18501 0.48 7.41911 -1.69914 0.48 
7.51602 -1.20497 0.48 7.58841 -0.706565 0.48 7.64007 -0.205754 0.48 
7.61559 0.296882 0.48 7.55795 0.797225 0.48 7.48139 1.29501 0.48 
7.37832 1.78789 0.48 7.2408 2.27233 0.48 7.07118 2.74649 0.48 
6.86825 3.20739 0.48 6.63394 3.65309 0.48 6.37257 4.08346 0.48 
6.0869 4.49821 0.48 5.77667 4.89492 0.48 5.44368 5.27273 0.48 
5.08821 5.62949 0.48 4.71039 5.96244 0.48 4.31058 6.26864 0.48 
3.89081 6.54684 0.48 3.45315 6.79582 0.48 3.00002 7.01551 0.48 
2.53207 7.20158 0.48 2.05274 7.35595 0.48 1.56393 7.47682 0.48 
1.06829 7.56596 0.48 0.569408 7.633 0.48 0.0679076 7.68209 0.48 
0.239136 8.76086 0.48 -0.261704 8.77738 0.48 -0.760503 8.72592 0.48 
-1.25759 8.65968 0.48 -1.75105 8.57052 0.48 -2.23837 8.45232 0.48 
-2.71791 8.30573 0.48 -3.18786 8.13088 0.48 -3.64665 7.92859 0.48 
-4.09318 7.70051 0.48 -4.52613 7.44759 0.48 -4.94332 7.16937 0.48 
-5.34317 6.8668 0.48 -5.72436 6.54098 0.48 -6.08606 6.19368 0.48 
-6.42671 5.82572 0.48 -6.74967 5.44215 0.48 -7.05233 5.04232 0.48 
-7.33335 4.62703 0.48 -7.5928 4.19799 0.48 -7.8284 3.75532 0.48 
-8.03769 3.29963 0.48 -8.21891 2.83213 0.48 -8.37213 2.35471 0.48 
-8.49779 1.86933 0.48 -8.59425 1.3773 0.48 -8.66539 0.880931 0.48 
-8.72012 0.38246 0.48 -8.7243 -0.118149 0.48 -8.67767 -0.617406 0.48 
-8.6148 -1.11492 0.48 -8.53302 -1.60962 0.48 -8.42093 -2.09836 0.48 
-8.28245 -2.58025 0.48 -8.11453 -3.05272 0.48 -7.91886 -3.51441 0.48 
-7.69629 -3.96377 0.48 -7.44857 -4.39975 0.48 -7.17729 -4.82143 0.48 
-6.88529 -5.22908 0.48 -6.57261 -5.62111 0.48 -6.24075 -5.99707 0.48 
-5.88888 -6.35436 0.48 -5.51686 -6.69061 0.48 -5.12571 -7.00437 0.48 
-4.71676 -7.29449 0.48 -4.29135 -7.55998 0.48 -3.85106 -7.79998 0.48 
-3.39781 -8.01442 0.48 -2.93309 -8.20266 0.48 -2.45763 -8.36196 0.48 
-1.97378 -8.49361 0.48 -1.48305 -8.5967 0.48 -0.98728 -8.67213 0.48 
-0.489202 -8.73052 0.48 0.0104932 -8.77259 0.48 0.510859 -8.74593 0.48 
1.00891 -8.68739 0.48 1.50461 -8.61151 0.48 1.99513 -8.50742 0.48 
2.47884 -8.37519 0.48 2.95396 -8.21486 0.48 3.41836 -8.02579 0.48 
3.87127 -7.81064 0.48 4.31123 -7.57006 0.48 4.73657 -7.30444 0.48 
5.14503 -7.01359 0.48 5.53574 -6.6993 0.48 5.90748 -6.36273 0.48 
6.25917 -6.00528 0.48 6.59089 -5.6292 0.48 6.90335 -5.23699 0.48 
7.19541 -4.82937 0.48 7.46621 -4.40737 0.48 7.71394 -3.9714 0.48 
7.9363 -3.52194 0.48 8.13176 -3.06018 0.48 8.29998 -2.58781 0.48 
[...]
CELL_DATA 188
FIELD FieldData 2
CellId 1 188 int
5 2 6 7 8 9 10 11 12 
13 14 15 16 17 18 19 20 21 
22 23 82 24 63 62 25 29 30 
31 32 33 34 35 36 37 38 39 
40 41 42 43 44 45 81 80 79 
78 155 77 156 157 158 159 160 161 
162 163 164 165 166 167 169 168 186 
187 1 27 26 0 46 47 48 49 
50 51 52 53 54 55 56 57 58 
64 61 60 59 65 66 111 67 83 
110 109 108 107 106 105 104 103 102 
101 100 98 99 96 153 154 4 3 
141 72 116 147 129 128 127 126 125 
124 123 122 121 120 119 118 117 142 
143 144 73 146 145 74 75 76 182 
181 180 179 178 177 176 175 174 173 
172 170 171 185 183 184 130 131 132 
133 134 135 136 137 138 139 140 115 
112 113 114 71 149 150 70 69 68 
84 85 86 87 88 89 90 91 92 
93 94 95 97 151 152 28 148 
Length 1 188 float
3.95323 3.62996 20.7914 27.4984 34.2349 41.024 47.8382 54.6547 61.4712 
68.2907 75.1078 81.9254 88.7433 95.5606 102.376 109.189 116.001 122.816 
129.652 136.661 21.725 148.233 30.6424 28.3836 23.3367 22.998 23.2589 
23.4013 23.6553 24.2614 24.4457 24.6619 25.1755 25.649 26.1042 26.8562 
27.5834 2.16561 2.38547 0.400276 1.05791 16.1957 0.95065 0.24308 0.576618 
0.564815 22.2057 30.5275 28.2431 27.8495 27.1276 26.3937 25.6986 25.169 
24.7458 24.4122 24.196 23.9755 23.3797 23.2331 23.5952 23.3209 0.775513 
16.1216 3.81827 1.45425 23.1709 3.89681 23.1696 23.354 23.6919 23.8764 
24.4965 24.6399 24.8638 25.3667 26.0628 26.8038 27.5467 3.77926 22.6403 
0.911959 2.58899 0.928142 0.716521 0.551858 0.892439 22.2132 30.5275 28.2522 
27.5466 26.8058 26.3953 25.6214 24.865 24.6469 24.4824 23.8906 23.6161 
23.3915 23.1485 23.5672 23.1396 2.34785 16.1198 0.325358 3.63518 3.70918 
21.7299 30.5867 28.356 2.20371 23.5549 23.2668 23.1732 23.4114 24.0128 
24.2538 24.4565 24.664 25.1637 25.6388 26.4178 27.1689 27.8853 0.219185 
0.012709 16.131 0.0155067 1.30641 0.794953 0.922242 0.190118 0.907498 28.1355 
27.3944 26.6297 25.9398 25.4099 24.8902 24.3882 24.1538 23.9559 23.7101 
23.2811 23.308 22.9992 1.21865 11.5747 2.13385 23.275 23.1518 23.4197 
23.6793 23.9712 24.4697 24.6926 24.8813 25.364 26.1408 26.9004 27.6228 
0.79476 7.84046 18.8958 0.145129 5.24532 1.03495 0.61171 0.224702 0.091978 
27.584 27.3987 26.5863 26.0749 25.554 25.0501 24.3694 24.1256 23.9391 
23.7033 23.0874 23.1288 22.5306 5.19502 1.02912 0.0490976 0.0154564 
