# vtk DataFile Version 4.2
vtk output
ASCII
DATASET POLYDATA
POINTS 9462 float
1.11651 -0.13349 7.2 0.563432 -0.0267174 7.2 0.00703414 0.0844269 7.2 
-0.55774 0.0637136 7.2 -1.11035 0.139652 7.2 -1.87554 0.124461 7.2 
-1.82649 0.421273 7.2 -1.42642 0.735595 7.2 -1.02312 1.04715 7.2 
-0.626025 1.36659 7.2 -0.25813 1.72068 7.2 0.168181 1.63287 7.2 
0.573364 1.32622 7.2 0.984799 1.02549 7.2 1.39739 0.726335 7.2 
1.80961 0.426708 7.2 2.21647 0.118279 7.2 2.69373 -0.0562706 7.2 
2.79506 0.704944 7.2 2.5276 1.11729 7.2 2.14225 1.48665 7.2 
1.74716 1.84496 7.2 1.34186 2.1917 7.2 0.928529 2.52885 7.2 
0.477007 2.80966 7.2 -0.0235608 2.97644 7.2 0.198211 4 7.2 
0.671541 3.82657 7.2 1.14092 3.6433 7.2 1.58704 3.40976 7.2 
2.0055 3.12901 7.2 2.39484 2.80883 7.2 2.75694 2.4581 7.2 
3.08628 2.07649 7.2 3.37054 1.66063 7.2 3.5985 1.21187 7.2 
3.74201 0.728996 7.2 3.89567 0.24922 7.2 4.00782 -0.231429 7.2 
3.82536 -0.700034 7.2 3.63909 -1.16847 7.2 3.40694 -1.61537 7.2 
3.12689 -2.03415 7.2 2.80248 -2.41998 7.2 2.44417 -2.77459 7.2 
2.05881 -3.09958 7.2 1.64613 -3.38882 7.2 1.20947 -3.64033 7.2 
0.751745 -3.85151 7.2 0.288429 -4.05416 7.2 -0.19773 -3.97981 7.2 
-0.670347 -3.80484 7.2 -1.13978 -3.62166 7.2 -1.58666 -3.3896 7.2 
-2.00507 -3.1087 7.2 -2.39434 -2.78844 7.2 -2.75649 -2.43777 7.2 
-3.08562 -2.056 7.2 -3.369 -1.63956 7.2 -3.59643 -1.19071 7.2 
-3.74702 -0.70994 7.2 -3.90633 -0.231971 7.2 -4.01221 0.250295 7.2 
-3.82663 0.719038 7.2 -3.64423 1.189 7.2 -3.41183 1.63584 7.2 
-3.13072 2.05393 7.2 -2.80572 2.43929 7.2 -2.44688 2.79337 7.2 
-2.06078 3.11749 7.2 -1.64748 3.40587 7.2 -1.2103 3.65658 7.2 
-0.752035 3.86665 7.2 -0.289445 4.0706 7.2 0.198211 4 7.2 
0.222 5.028 7.2 -0.278056 5.07298 7.2 -0.767322 4.94377 7.2 
-1.25241 4.80057 7.2 -1.72554 4.62201 7.2 -2.17869 4.39778 7.2 
-2.60589 4.12763 7.2 -3.00702 3.81979 7.2 -3.37763 3.47572 7.2 
-3.71912 3.1027 7.2 -4.02874 2.70283 7.2 -4.30235 2.27749 7.2 
-4.53157 1.82674 7.2 -4.71496 1.35559 7.2 -4.86059 0.871234 7.2 
-4.9884 0.382061 7.2 -4.9969 -0.11664 7.2 -4.87812 -0.608283 7.2 
-4.75006 -1.09759 7.2 -4.59181 -1.57781 7.2 -4.38858 -2.04074 7.2 
-4.13698 -2.47936 7.2 -3.84262 -2.89045 7.2 -3.51708 -3.27737 7.2 
-3.15913 -3.63464 7.2 -2.77145 -3.95939 7.2 -2.35458 -4.24558 7.2 
-1.91012 -4.4865 7.2 -1.44251 -4.67881 7.2 -0.959091 -4.82745 7.2 
-0.469141 -4.95312 7.2 0.0241358 -5.06298 7.2 0.521796 -4.99079 7.2 
1.00991 -4.85821 7.2 1.49017 -4.69962 7.2 1.95417 -4.49858 7.2 
2.39495 -4.25086 7.2 2.80893 -3.96046 7.2 3.19409 -3.63273 7.2 
3.55006 -3.2735 7.2 3.87422 -2.88544 7.2 4.16776 -2.47373 7.2 
4.41985 -2.03539 7.2 4.62564 -1.57358 7.2 4.79104 -1.09572 7.2 
4.92653 -0.608457 7.2 5.02512 -0.113947 7.2 4.93342 0.381028 7.2 
4.81379 0.872478 7.2 4.6739 1.35845 7.2 4.4959 1.8316 7.2 
4.26889 2.28337 7.2 3.99501 2.70851 7.2 3.68446 3.10765 7.2 
3.34144 3.47927 7.2 2.9687 3.82099 7.2 2.56646 4.12752 7.2 
2.13441 4.38994 7.2 1.67794 4.60689 7.2 1.20157 4.77623 7.2 
0.714161 4.91158 7.2 0.222 5.028 7.2 0.18628 6.06372 7.2 
-0.313488 6.07925 7.2 -0.807639 5.99623 7.2 -1.2983 5.89358 7.2 
-1.78131 5.75966 7.2 -2.25123 5.5852 7.2 -2.7041 5.37038 7.2 
-3.13592 5.11615 7.2 -3.54582 4.82785 7.2 -3.92853 4.50413 7.2 
-4.28466 4.15137 7.2 -4.61291 3.77252 7.2 -4.91082 3.36946 7.2 
-5.17995 2.94664 7.2 -5.41518 2.50399 7.2 -5.6129 2.04338 7.2 
-5.77067 1.56763 7.2 -5.88835 1.08042 7.2 -5.9816 0.587889 7.2 
-6.03685 0.0903564 7.2 -5.9795 -0.40701 7.2 -5.89233 -0.900678 7.2 
-5.78426 -1.39013 7.2 -5.63974 -1.86997 7.2 -5.45577 -2.33606 7.2 
-5.23345 -2.78523 7.2 -4.97583 -3.21524 7.2 -4.68567 -3.62398 7.2 
-4.36588 -4.00998 7.2 -4.01764 -4.37053 7.2 -3.64223 -4.70264 7.2 
-3.24084 -5.00288 7.2 -2.81387 -5.26548 7.2 -2.36531 -5.48903 7.2 
-1.89899 -5.67259 7.2 -1.41879 -5.816 7.2 -0.929592 -5.92527 7.2 
-0.43558 -6.01065 7.2 0.0615676 -6.07119 7.2 0.559651 -6.02174 7.2 
1.05231 -5.92881 7.2 1.54007 -5.81329 7.2 2.01671 -5.65811 7.2 
2.47886 -5.46398 7.2 2.92193 -5.22961 7.2 3.34293 -4.95764 7.2 
3.73885 -4.65028 7.2 4.10836 -4.31156 7.2 4.4507 -3.94541 7.2 
4.76486 -3.55479 7.2 5.04868 -3.14162 7.2 5.3 -2.70797 7.2 
5.51849 -2.25684 7.2 5.69533 -1.78784 7.2 5.83344 -1.30604 7.2 
5.93747 -0.815675 7.2 6.025 -0.321701 7.2 6.0121 0.17762 7.2 
5.93664 0.673329 7.2 5.8402 1.16527 7.2 5.71738 1.65123 7.2 
5.55289 2.12456 7.2 5.34848 2.58214 7.2 5.10833 3.02212 7.2 
4.83356 3.44136 7.2 4.52897 3.83941 7.2 4.19471 4.21296 7.2 
3.83272 4.5597 7.2 3.44402 4.87615 7.2 3.02919 5.15753 7.2 
2.5904 5.39961 7.2 2.13268 5.60342 7.2 1.65947 5.76844 7.2 
1.174 5.89287 7.2 0.682017 5.98947 7.2 0.18628 6.06372 7.2 
0.123839 7.12616 7.2 -0.379371 7.12104 7.2 -0.879776 7.05683 7.2 
-1.37735 6.97323 7.2 -1.86812 6.85692 7.2 -2.34973 6.70695 7.2 
-2.8197 6.52379 7.2 -3.27487 6.30626 7.2 -3.71187 6.05422 7.2 
-4.12877 5.77025 7.2 -4.52331 5.45589 7.2 -4.893 5.11261 7.2 
-5.23713 4.7437 7.2 -5.55587 4.35264 7.2 -5.84879 3.94193 7.2 
-6.11587 3.51394 7.2 -6.3515 3.06787 7.2 -6.55542 2.60646 7.2 
-6.72493 2.13141 7.2 -6.85957 1.6453 7.2 -6.96076 1.15113 7.2 
-7.03535 0.652115 7.2 -7.08326 0.150305 7.2 -7.04988 -0.352517 7.2 
-6.98358 -0.852695 7.2 -6.89768 -1.34981 7.2 -6.78321 -1.84103 7.2 
-6.63136 -2.32208 7.2 -6.44639 -2.79136 7.2 -6.22858 -3.2464 7.2 
-5.97778 -3.68413 7.2 -5.69839 -4.10417 7.2 -5.39299 -4.50572 7.2 
-5.0622 -4.88663 7.2 -4.70604 -5.24392 7.2 -4.32434 -5.57376 7.2 
-3.91849 -5.87328 7.2 -3.49218 -6.14293 7.2 -3.04556 -6.37751 7.2 
-2.58291 -6.57856 7.2 -2.10693 -6.74549 7.2 -1.62024 -6.87796 7.2 
-1.1257 -6.9773 7.2 -0.626627 -7.05149 7.2 -0.125188 -7.10723 7.2 
0.378038 -7.10209 7.2 0.878395 -7.03728 7.2 1.37583 -6.95291 7.2 
1.8667 -6.83702 7.2 2.34812 -6.68648 7.2 2.8181 -6.50334 7.2 
3.27339 -6.2861 7.2 3.71021 -6.03376 7.2 4.12726 -5.75004 7.2 
4.52187 -5.43576 7.2 4.89167 -5.09261 7.2 5.23578 -4.72367 7.2 
5.55484 -4.33288 7.2 5.84768 -3.92213 7.2 6.11532 -3.49451 7.2 
6.35138 -3.04866 7.2 6.55526 -2.58722 7.2 6.72464 -2.11211 7.2 
6.85939 -1.62602 7.2 6.96038 -1.13183 7.2 7.03589 -0.632953 7.2 
7.08272 -0.131055 7.2 7.04787 0.371693 7.2 6.98239 0.871982 7.2 
6.89691 1.36917 7.2 6.78224 1.86033 7.2 6.63025 2.34133 7.2 
6.4452 2.81053 7.2 6.22764 3.26564 7.2 5.97719 3.70357 7.2 
5.69767 4.12354 7.2 5.39234 4.52514 7.2 5.06152 4.90603 7.2 
4.70521 5.26317 7.2 4.32327 5.59275 7.2 3.9177 5.89272 7.2 
3.49077 6.16145 7.2 3.04404 6.39581 7.2 2.58133 6.59669 7.2 
2.10549 6.7641 7.2 1.61881 6.89655 7.2 1.12422 6.99565 7.2 
0.625627 7.07031 7.2 0.123839 7.12616 7.2 0.0357929 8.21421 7.2 
-0.465249 8.19544 7.2 -0.963941 8.13692 7.2 -1.46007 8.06 7.2 
-1.95105 7.95525 7.2 -2.43427 7.81918 7.2 -2.90882 7.65549 7.2 
-3.37231 7.46267 7.2 -3.82296 7.24152 7.2 -4.25899 6.99272 7.2 
-4.67779 6.71587 7.2 -5.07727 6.41191 7.2 -5.4569 6.08342 7.2 
-5.81364 5.73019 7.2 -6.14631 5.35424 7.2 -6.45845 4.96108 7.2 
-6.74745 4.55055 7.2 -7.01315 4.12459 7.2 -7.25482 3.68456 7.2 
-7.46959 3.2308 7.2 -7.65465 2.7641 7.2 -7.81037 2.28682 7.2 
-7.93613 1.8008 7.2 -8.03282 1.30819 7.2 -8.10296 0.811046 7.2 
-8.15629 0.311791 7.2 -8.14826 -0.189457 7.2 -8.09738 -0.688921 7.2 
-8.02949 -1.18638 7.2 -7.93974 -1.68032 7.2 -7.81779 -2.16727 7.2 
-7.66794 -2.64638 7.2 -7.4885 -3.11519 7.2 -7.28005 -3.57185 7.2 
-7.04319 -4.01452 7.2 -6.78124 -4.44282 7.2 -6.49613 -4.85604 7.2 
-6.18916 -5.25331 7.2 -5.85963 -5.63208 7.2 -5.50687 -5.98931 7.2 
-5.13155 -6.32276 7.2 -4.73502 -6.63065 7.2 -4.3187 -6.91117 7.2 
-3.88549 -7.16471 7.2 -3.43745 -7.39107 7.2 -2.97614 -7.5891 7.2 
-2.50331 -7.75786 7.2 -2.02099 -7.8972 7.2 -1.53121 -8.00744 7.2 
-1.03566 -8.08797 7.2 -0.537356 -8.14945 7.2 -0.0372733 -8.19433 7.2 
0.463796 -8.17498 7.2 0.962411 -8.11615 7.2 1.4585 -8.03902 7.2 
1.94946 -7.93417 7.2 2.43268 -7.79813 7.2 2.90715 -7.63424 7.2 
3.37058 -7.44133 7.2 3.82144 -7.22062 7.2 4.2576 -6.97206 7.2 
4.67638 -6.69518 7.2 5.07668 -6.39222 7.2 5.45547 -6.06271 7.2 
5.81257 -5.70986 7.2 6.14587 -5.33442 7.2 6.45758 -4.94092 7.2 
6.747 -4.53068 7.2 7.01287 -4.10481 7.2 7.25469 -3.66487 7.2 
7.46953 -3.21116 7.2 7.65489 -2.74459 7.2 7.81057 -2.26728 7.2 
7.93666 -1.78134 7.2 8.03301 -1.28865 7.2 8.10349 -0.791541 7.2 
8.15732 -0.292325 7.2 8.14684 0.208981 7.2 8.09627 0.708489 7.2 
8.02873 1.206 7.2 7.93902 1.69995 7.2 7.81704 2.18692 7.2 
7.66735 2.66609 7.2 7.48765 3.13481 7.2 7.27903 3.59139 7.2 
7.04226 4.03409 7.2 6.77998 4.46218 7.2 6.49527 4.87566 7.2 
6.18834 5.27295 7.2 5.85756 5.6506 7.2 5.50559 6.00854 7.2 
5.13019 6.34189 7.2 4.73344 6.6495 7.2 4.31688 6.92966 7.2 
3.88407 7.18389 7.2 3.43574 7.40975 7.2 2.97436 7.60764 7.2 
2.50158 7.77654 7.2 2.01931 7.91607 7.2 1.52965 8.02687 7.2 
1.03411 8.10746 7.2 0.535986 8.16929 7.2 0.0357929 8.21421 7.2 
0.197068 9.30293 7.2 -0.302918 9.31364 7.2 -0.800089 9.26126 7.2 
-1.29601 9.1956 7.2 -1.78866 9.10903 7.2 -2.27572 8.99505 7.2 
-2.75634 8.85641 7.2 -3.22872 8.6918 7.2 -3.69149 8.50191 7.2 
-4.14371 8.28816 7.2 -4.58421 8.05114 7.2 -5.01168 7.79133 7.2 
-5.42358 7.50751 7.2 -5.81826 7.20021 7.2 -6.19338 6.86931 7.2 
-6.54904 6.51756 7.2 -6.88576 6.14763 7.2 -7.20301 5.76087 7.2 
-7.5001 5.35841 7.2 -7.77799 4.94248 7.2 -8.0354 4.51356 7.2 
-8.26944 4.07146 7.2 -8.47977 3.61765 7.2 -8.66568 3.15329 7.2 
-8.82635 2.67961 7.2 -8.9624 2.19827 7.2 -9.07145 1.71008 7.2 
-9.15466 1.21683 7.2 -9.21729 0.720507 7.2 -9.26314 0.22245 7.2 
-9.24249 -0.276935 7.2 -9.19153 -0.774585 7.2 -9.12604 -1.27053 7.2 
-9.03925 -1.76317 7.2 -8.92538 -2.25027 7.2 -8.78575 -2.73061 7.2 
-8.62041 -3.20271 7.2 -8.43023 -3.66536 7.2 -8.21518 -4.11697 7.2 
-7.97688 -4.55676 7.2 -7.71629 -4.98375 7.2 -7.43467 -5.39718 7.2 
-7.13396 -5.79692 7.2 -6.81244 -6.1801 7.2 -6.47328 -6.54777 7.2 
-6.11334 -6.89508 7.2 -5.73554 -7.22288 7.2 -5.33752 -7.52585 7.2 
-4.92195 -7.80419 7.2 -4.49271 -8.061 7.2 -4.04995 -8.29382 7.2 
-3.59536 -8.50252 7.2 -3.13046 -8.68702 7.2 -2.65634 -8.84639 7.2 
-2.17467 -8.98121 7.2 -1.68629 -9.08934 7.2 -1.19294 -9.17188 7.2 
[...]
CELL_DATA 186
FIELD FieldData 2
CellId 1 186 int
0 5 4 15 16 17 18 19 20 
21 22 23 24 25 26 27 28 29 
30 31 55 32 50 38 33 42 41 
40 39 65 56 57 58 59 60 61 
62 63 64 67 66 104 68 96 97 
98 69 99 70 71 72 73 74 75 
76 77 83 78 100 80 79 101 103 
102 14 2 45 34 35 1 36 37 
46 47 184 183 182 181 180 48 49 
54 185 177 172 176 171 170 169 168 
167 165 166 164 163 162 161 159 160 
178 175 174 173 11 6 8 137 53 
112 138 140 126 127 128 129 130 131 
132 133 134 135 136 110 111 52 109 
141 142 51 105 95 94 93 92 91 
90 89 88 87 86 84 85 106 107 
108 125 124 123 122 121 120 119 118 
117 116 115 113 114 143 144 151 150 
149 148 147 152 153 154 155 156 158 
157 145 146 13 3 44 43 12 179 
10 7 139 9 82 81 
Length 1 186 float
2.25364 5.83048 3.68476 24.1463 30.8292 37.5875 44.3884 51.2045 58.0233 
64.8417 71.6608 78.4792 85.3019 92.1235 98.9448 105.762 112.577 119.391 
126.216 133.125 21.2442 144.806 68.4283 11.8118 3.21725 23.9013 23.736 
24.2985 24.6495 26.3114 31.8239 25.5502 25.7252 26.1052 27.0302 27.7836 
28.9894 28.5694 0.615229 14.0902 1.38444 21.0103 29.6867 27.6219 0.17293 
0.620571 27.92 2.58699 27.1779 26.4142 25.7814 25.6466 25.3145 25.1309 
24.8837 24.197 1.42109 23.729 3.55297 2.44752 24.0926 18.646 4.15398 
2.41781 0.35693 3.99287 0.426756 23.9426 23.8189 5.76992 24.2997 24.6536 
26.377 31.8698 25.5932 25.7338 26.2044 26.9967 27.7408 29.1256 29.4783 
39.263 15.1019 21.0152 29.3741 27.3579 28.9732 27.9282 26.8418 26.1175 
25.6698 25.3715 25.3393 24.7593 24.538 23.9168 23.8545 3.32245 23.9078 
0.520696 6.65158 1.54191 1.19174 0.356234 3.66716 3.99468 20.9647 35.8648 
27.7304 3.20787 0.511936 23.9657 23.7076 24.2479 24.5922 25.1731 25.3753 
25.5346 25.6389 26.1775 26.9482 27.9755 29.2249 27.9569 1.52053 0.4634 
10.1111 0.9842 4.93273 29.6331 28.1786 27.4481 26.6957 25.9552 25.7209 
25.28 25.054 24.8554 24.1525 23.9851 23.9761 23.7465 16.3652 1.07575 
0.544647 24.0533 23.7692 23.9517 24.5784 24.8556 25.4553 25.2579 25.4848 
26.1982 26.6189 27.6969 28.5391 29.5961 16.1166 29.6016 28.4112 27.3828 
26.6402 25.8698 25.5022 25.2598 24.9983 24.8199 24.2279 24.0055 24.1065 
23.9608 16.3671 0.923836 0.133694 0.0734328 0.0309263 0.118558 0.119058 0.0687716 
0.151625 0.0776211 0.172787 0.117917 0.112781 0.0756553 
