# vtk DataFile Version 4.2
vtk output
ASCII
DATASET POLYDATA
POINTS 9300 float
0.202424 0.547576 4.32 0.585668 0.0489419 4.32 0.227909 -0.5 4.32 
13.0398 10.4602 4.32 12.6187 10.1959 4.32 12.2062 9.89681 4.32 
11.7844 9.61073 4.32 11.3608 9.32724 4.32 10.9501 9.02555 4.32 
10.5515 8.70796 4.32 10.156 8.38647 4.32 9.76643 8.05777 4.32 
9.39224 7.7117 4.32 9.02527 7.35803 4.32 8.68246 6.98122 4.32 
8.44692 6.53258 4.32 8.22432 6.07655 4.32 7.94824 5.64811 4.32 
7.67023 5.22092 4.32 7.40441 4.78603 4.32 7.15373 4.34231 4.32 
6.9197 3.88959 4.32 6.69685 3.43137 4.32 6.50106 2.96147 4.32 
6.46779 2.48182 4.32 6.37371 1.98096 4.32 6.16109 1.51908 4.32 
5.86907 1.10272 4.32 5.48537 0.768788 4.32 5.02935 0.544357 4.32 
4.52954 0.450736 4.32 4.0207 0.466727 4.32 3.52205 0.570226 4.32 
3.04677 0.752887 4.32 2.60379 1.00329 4.32 2.16658 1.26439 4.32 
1.67814 1.39437 4.32 1.17071 1.38009 4.32 0.675009 1.38878 4.32 
0.235036 1.29507 4.32 -0.252482 1.16149 4.32 -0.725566 1.09838 4.32 
-1.23344 1.09997 4.32 -1.73728 1.03158 4.32 -2.2103 0.845711 4.32 
-2.63855 0.570002 4.32 -3.06289 0.292128 4.32 -2.90405 0.0959521 4.32 
5.83726 9.66274 4.32 6.18952 9.4401 4.32 5.80338 9.10325 4.32 
5.36343 8.84258 4.32 4.91515 8.59679 4.32 4.46258 8.35903 4.32 
4.00095 8.13929 4.32 3.52986 7.94071 4.32 3.04839 7.76882 4.32 
2.55908 7.62071 4.32 2.06467 7.49049 4.32 1.57006 7.36102 4.32 
1.08006 7.21525 4.32 0.605759 7.02524 4.32 0.164096 6.76943 4.32 
-0.287191 6.66705 4.32 -0.710231 6.95348 4.32 -1.17584 7.16368 4.32 
-1.66002 7.32766 4.32 -2.15027 7.47274 4.32 -2.64167 7.61394 4.32 
-3.12948 7.76695 4.32 -3.61066 7.93955 4.32 -4.07944 8.14339 4.32 
-4.53598 8.37334 4.32 -4.97951 8.62761 4.32 -5.4148 8.89454 4.32 
-5.83006 9.16994 4.32 7.36341 10.1366 4.32 6.98885 10.1975 4.32 
6.55158 9.92666 4.32 6.18949 9.74737 4.32 5.69129 9.83217 4.32 
5.20472 9.6649 4.32 4.72911 9.46847 4.32 4.25345 9.27176 4.32 
3.77416 9.08405 4.32 3.28942 8.91091 4.32 2.79848 8.75633 4.32 
2.30174 8.62143 4.32 1.80164 8.49956 4.32 1.29885 8.38925 4.32 
0.796841 8.27554 4.32 0.298947 8.14517 4.32 -0.199702 8.04634 4.32 
-0.69254 8.18682 4.32 -1.19115 8.3146 4.32 -1.69252 8.43118 4.32 
-2.19197 8.55571 4.32 -2.68888 8.69004 4.32 -3.18046 8.84259 4.32 
-3.66564 9.01437 4.32 -4.1454 9.20083 4.32 -4.62049 9.39881 4.32 
-5.09696 9.5935 4.32 -5.57989 9.77193 4.32 -6.06026 9.93974 4.32 
7.87902 12.121 4.32 8.02372 11.8401 4.32 7.65333 11.4944 4.32 
7.20626 11.2485 4.32 6.72626 11.0697 4.32 6.24448 10.895 4.32 
5.75918 10.7305 4.32 5.2691 10.5807 4.32 4.77991 10.4281 4.32 
4.29304 10.2682 4.32 3.80516 10.1115 4.32 3.31558 9.96022 4.32 
2.82229 9.82151 4.32 2.32426 9.70096 4.32 1.82366 9.59139 4.32 
1.32047 9.49452 4.32 0.815637 9.40647 4.32 0.311358 9.31524 4.32 
-0.195504 9.25608 4.32 -0.699923 9.34279 4.32 -1.20428 9.43351 4.32 
-1.70757 9.52995 4.32 -2.20836 9.63859 4.32 -2.70669 9.75799 4.32 
-3.20084 9.89363 4.32 -3.69052 10.0446 4.32 -4.17826 10.2017 4.32 
-4.66462 10.3631 4.32 -5.15332 10.5173 4.32 -5.64388 10.6655 4.32 
-6.13254 10.8197 4.32 -6.60641 11.0136 4.32 -7.05074 11.2647 4.32 
-7.39897 11.601 4.32 8.91544 12.8346 4.32 8.50378 12.5365 4.32 
8.05335 12.3848 4.32 7.55905 12.3285 4.32 7.07953 12.1549 4.32 
6.6007 11.9782 4.32 6.11804 11.8122 4.32 5.63228 11.6555 4.32 
5.14421 11.5061 4.32 4.65427 11.363 4.32 4.16316 11.2239 4.32 
3.66951 11.0942 4.32 3.17459 10.9694 4.32 2.67705 10.8555 4.32 
2.17657 10.7553 4.32 1.67478 10.6618 4.32 1.1709 10.5804 4.32 
0.666336 10.5032 4.32 0.161651 10.4271 4.32 -0.345815 10.4177 4.32 
-0.850342 10.495 4.32 -1.35479 10.5729 4.32 -1.85767 10.6602 4.32 
-2.35893 10.7565 4.32 -2.85814 10.8627 4.32 -3.35434 10.9823 4.32 
-3.84857 11.1098 4.32 -4.3412 11.2433 4.32 -4.8316 11.3849 4.32 
-5.321 11.5299 4.32 -5.80791 11.683 4.32 -6.29235 11.8438 4.32 
-6.77597 12.0069 4.32 -7.26234 12.161 4.32 -7.72656 12.3683 4.32 
-8.11985 12.6887 4.32 -8.43586 13.0641 4.32 7.70411 13.5459 4.32 
7.65966 13.2859 4.32 7.18681 13.0842 4.32 6.69767 12.9304 4.32 
6.20477 12.7889 4.32 5.71177 12.6476 4.32 5.21707 12.5124 4.32 
4.72076 12.3833 4.32 4.2228 12.2607 4.32 3.72264 12.1474 4.32 
3.22065 12.0425 4.32 2.71756 11.943 4.32 2.21203 11.8567 4.32 
1.70603 11.7732 4.32 1.19882 11.6974 4.32 0.691066 11.6253 4.32 
0.183356 11.5528 4.32 -0.327152 11.5344 4.32 -0.834549 11.611 4.32 
-1.34221 11.6837 4.32 -1.84902 11.7621 4.32 -2.35474 11.8473 4.32 
-2.85957 11.9375 4.32 -3.36214 12.0395 4.32 -3.86348 12.1475 4.32 
-4.36293 12.2638 4.32 -4.86006 12.3897 4.32 -5.35593 12.5205 4.32 
-5.84972 12.6589 4.32 -6.34266 12.8004 4.32 -6.83398 12.9472 4.32 
-7.31945 13.1117 4.32 -7.73234 13.3799 4.32 -7.68504 13.565 4.32 
14.3537 15.1463 4.32 13.9665 14.8807 4.32 13.511 14.6781 4.32 
13.0174 14.5758 4.32 12.525 14.4644 4.32 12.0345 14.3449 4.32 
11.5478 14.2108 4.32 11.0625 14.0719 4.32 10.5755 13.939 4.32 
10.0859 13.8162 4.32 9.58714 13.7409 4.32 9.08277 13.7202 4.32 
8.57826 13.7161 4.32 8.07338 13.7076 4.32 7.60774 13.8492 4.32 
7.11429 13.8943 4.32 6.61519 13.8191 4.32 6.12061 13.7177 4.32 
5.62763 13.6089 4.32 5.13511 13.498 4.32 4.64134 13.3928 4.32 
4.14722 13.2893 4.32 3.65126 13.1949 4.32 3.15418 13.1067 4.32 
2.65627 13.0232 4.32 2.15713 12.9474 4.32 1.6577 12.8735 4.32 
1.15771 12.8036 4.32 0.657554 12.7347 4.32 0.157412 12.6661 4.32 
-0.345005 12.6572 4.32 -0.845095 12.7264 4.32 -1.34523 12.7954 4.32 
-1.84497 12.8672 4.32 -2.34421 12.9423 4.32 -2.84309 13.0198 4.32 
-3.34034 13.1071 4.32 -3.83709 13.1972 4.32 -4.33227 13.2955 4.32 
-4.82591 13.4013 4.32 -5.31925 13.5085 4.32 -5.81153 13.6205 4.32 
-6.30454 13.7292 4.32 -6.80036 13.8241 4.32 -7.30147 13.8777 4.32 
-7.78593 13.7651 4.32 -8.24992 13.6299 4.32 -8.75265 13.6647 4.32 
-9.25102 13.7368 4.32 -9.70188 13.56 4.32 -10.1481 13.735 4.32 
-10.622 13.9092 4.32 -11.1049 14.0564 4.32 -11.592 14.189 4.32 
-12.0791 14.3217 4.32 -12.5699 14.4393 4.32 -13.0621 14.5499 4.32 
-13.5291 14.7209 4.32 15.8469 16.6531 4.32 15.4575 16.3609 4.32 
15.0256 16.1331 4.32 14.5436 16.0052 4.32 14.0604 15.8763 4.32 
13.5697 15.7793 4.32 13.0806 15.6749 4.32 12.5908 15.5739 4.32 
12.0978 15.4889 4.32 11.6052 15.4022 4.32 11.1129 15.3138 4.32 
10.6197 15.2304 4.32 10.1259 15.1508 4.32 9.63086 15.0793 4.32 
9.1344 15.0184 4.32 8.637 14.9655 4.32 8.13862 14.9231 4.32 
7.63978 14.887 4.32 7.14146 14.8446 4.32 6.64474 14.7863 4.32 
6.15006 14.7122 4.32 5.65698 14.6282 4.32 5.16503 14.5378 4.32 
4.67258 14.4502 4.32 4.18021 14.362 4.32 3.6868 14.28 4.32 
3.19281 14.2015 4.32 2.6983 14.1263 4.32 2.20307 14.056 4.32 
1.7077 13.9867 4.32 1.21206 13.9194 4.32 0.716314 13.8528 4.32 
0.220645 13.7857 4.32 -0.27745 13.7566 4.32 -0.772908 13.8267 4.32 
-1.26863 13.8934 4.32 -1.76421 13.9612 4.32 -2.25956 14.0307 4.32 
-2.75472 14.1015 4.32 -3.24908 14.1776 4.32 -3.74305 14.2563 4.32 
-4.23627 14.3395 4.32 -4.72849 14.4284 4.32 -5.22088 14.5164 4.32 
-5.71274 14.6073 4.32 -6.20586 14.691 4.32 -6.70073 14.7638 4.32 
-7.1977 14.8201 4.32 -7.69625 14.8599 4.32 -8.19523 14.8939 4.32 
-8.69362 14.936 4.32 -9.19093 14.9896 4.32 -9.68735 15.0508 4.32 
-10.1823 15.1232 4.32 -10.6759 15.2037 4.32 -11.1687 15.2895 4.32 
-11.661 15.3783 4.32 -12.1536 15.4651 4.32 -12.6464 15.5505 4.32 
-13.1359 15.6532 4.32 -13.6247 15.7593 4.32 -14.1143 15.8617 4.32 
-14.5951 15.9927 4.32 -15.0379 16.2121 4.32 16.0866 17.6219 4.32 
15.6293 17.4159 4.32 15.1507 17.2647 4.32 14.6678 17.1273 4.32 
14.1864 16.9848 4.32 13.6987 16.866 4.32 13.2059 16.7701 4.32 
12.7122 16.6787 4.32 12.2176 16.5925 4.32 11.7221 16.5117 4.32 
11.226 16.4346 4.32 10.7293 16.3608 4.32 10.2323 16.29 4.32 
9.7349 16.2216 4.32 9.23718 16.1557 4.32 8.73917 16.0919 4.32 
8.24095 16.0299 4.32 7.74271 15.968 4.32 7.24453 15.9056 4.32 
6.74691 15.8389 4.32 6.24986 15.7681 4.32 5.75331 15.6938 4.32 
5.2575 15.6147 4.32 4.7614 15.5376 4.32 4.26554 15.4588 4.32 
3.76923 15.383 4.32 3.27254 15.3097 4.32 2.77562 15.2379 4.32 
2.2783 15.169 4.32 1.78082 15.1013 4.32 1.28319 15.0347 4.32 
0.785472 14.9686 4.32 0.287816 14.9022 4.32 -0.211779 14.8626 4.32 
-0.709642 14.9252 4.32 -1.20733 14.9914 4.32 -1.70496 15.058 4.32 
-2.20245 15.1257 4.32 -2.69982 15.1943 4.32 -3.19676 15.2659 4.32 
-3.69344 15.3393 4.32 -4.18984 15.4146 4.32 -4.6857 15.4933 4.32 
-5.18171 15.571 4.32 -5.67752 15.65 4.32 -6.17389 15.7255 4.32 
-6.67095 15.7963 4.32 -7.16848 15.8636 4.32 -7.66666 15.926 4.32 
-8.1649 15.9879 4.32 -8.6632 16.0493 4.32 -9.16127 16.1126 4.32 
-9.65905 16.1781 4.32 -10.1565 16.2463 4.32 -10.6536 16.3169 4.32 
-11.1502 16.3903 4.32 -11.6464 16.4668 4.32 -12.142 16.5471 4.32 
-12.6368 16.6325 4.32 -13.1306 16.7232 4.32 -13.6236 16.8182 4.32 
-14.113 16.9299 4.32 -14.5949 17.0705 4.32 -15.0773 17.2097 4.32 
-15.5522 17.3719 4.32 14.8848 18.266 4.32 14.4013 18.1301 4.32 
13.9142 18.0076 4.32 13.4241 17.8975 4.32 12.9317 17.7983 4.32 
12.4375 17.7083 4.32 11.9421 17.6254 4.32 11.4458 17.5475 4.32 
10.9489 17.4741 4.32 10.4516 17.4036 4.32 9.95391 17.3355 4.32 
9.45604 17.2688 4.32 8.95804 17.2032 4.32 8.45996 17.1381 4.32 
7.96191 17.0728 4.32 7.46391 17.0071 4.32 6.96609 16.9401 4.32 
6.46854 16.8711 4.32 5.97111 16.8013 4.32 5.47407 16.7287 4.32 
4.97701 16.6563 4.32 4.48003 16.5833 4.32 3.98302 16.5105 4.32 
3.48579 16.4393 4.32 2.98842 16.369 4.32 2.49084 16.3002 4.32 
1.99307 16.2328 4.32 1.49517 16.1664 4.32 0.997137 16.101 4.32 
0.499115 16.0355 4.32 0.00113349 15.9696 4.32 -0.499002 16.0025 4.32 
-0.99701 16.0681 4.32 -1.49503 16.1336 4.32 -1.99292 16.2001 4.32 
-2.4907 16.2675 4.32 -2.98828 16.3362 4.32 -3.48564 16.4066 4.32 
-3.98288 16.4778 4.32 -4.47987 16.5507 4.32 -4.97684 16.6237 4.32 
-5.47389 16.6963 4.32 -5.97093 16.7688 4.32 -6.46836 16.8387 4.32 
-6.96591 16.9076 4.32 -7.46373 16.9746 4.32 -7.96175 17.0402 4.32 
-8.45981 17.1054 4.32 -8.9579 17.1704 4.32 -9.45591 17.236 4.32 
-9.95378 17.3026 4.32 -10.4515 17.3707 4.32 -10.9488 17.4412 4.32 
-11.4457 17.5145 4.32 -11.942 17.5923 4.32 -12.4374 17.6753 4.32 
-12.9316 17.7651 4.32 -13.424 17.8642 4.32 -13.9142 17.9738 4.32 
[...]
CELL_DATA 229
FIELD FieldData 2
CellId 1 229 int
1 126 10 9 6 5 7 42 39 
38 127 128 129 130 131 132 133 134 
135 136 137 138 139 141 142 144 146 
147 148 150 152 153 154 155 156 157 
158 159 160 161 162 163 11 226 12 
28 29 31 30 23 8 27 26 151 
24 43 25 44 145 45 46 47 48 
49 50 51 52 53 54 55 56 57 
58 59 60 62 63 61 64 65 67 
71 66 72 73 74 75 76 77 78 
79 80 81 82 14 4 3 15 16 
41 164 40 175 125 17 124 123 149 
122 121 120 37 140 143 84 85 86 
87 88 89 90 91 92 93 94 95 
96 97 98 99 100 101 102 103 105 
107 109 106 110 111 112 113 114 115 
116 117 118 119 177 178 182 179 180 
181 36 83 183 184 185 186 187 188 
189 190 191 192 193 194 195 196 197 
198 200 201 202 203 206 208 209 210 
211 212 213 214 215 216 217 218 219 
221 21 22 35 34 222 220 32 207 
69 70 68 19 18 172 171 173 170 
174 176 204 199 205 104 108 0 227 
13 169 168 166 167 165 2 228 20 
225 224 223 33 
Length 1 229 float
1.28413 21.9881 13.6462 14.1418 16.6722 18.2963 16.3314 28.617 31.4757 
32.1301 30.1374 28.2265 28.1016 28.0508 28.0416 27.7839 27.7884 28.0475 
27.793 28.0528 27.6666 27.5587 27.5882 27.8433 27.8455 30.4964 30.8297 
31.4029 31.5479 32.8227 33.0123 33.2798 33.9422 34.3096 34.7001 31.3116 
27.4044 23.2623 18.8683 14.24 9.27422 2.13041 10.2961 3.55112 4.62122 
7.48854 15.2159 4.03117 15.8041 20.1207 4.26887 12.1639 18.1296 6.46421 
17.4069 32.712 15.6599 32.9062 0.468517 32.5511 30.1391 27.9701 27.8531 
27.6219 27.7733 27.7844 27.7887 28.0473 27.5386 27.5421 27.8049 27.6317 
27.8434 27.9 28.1011 30.7147 30.6605 1.16163 30.9611 31.8638 32.9401 
33.0101 6.34741 33.6074 33.2455 33.9515 34.3507 31.5046 27.6416 23.5247 
19.1093 14.4623 9.54768 2.72284 0.346843 16.3841 2.44896 5.14908 7.96112 
15.7679 4.42516 18.1356 18.4636 13.0429 12.7965 5.34064 15.5289 6.4927 
17.3644 18.3074 15.6583 33.722 0.21627 1.27601 33.022 30.5754 30.2582 
27.7122 27.8107 27.5329 28.0409 27.7878 27.5905 27.721 27.5404 27.7992 
27.8086 27.8297 27.6281 28.0734 30.8455 31.0912 31.1107 31.265 31.3681 
32.9013 33.1249 6.40942 33.4132 33.7338 33.8149 33.5189 29.7288 25.7727 
21.5133 16.9931 12.231 6.93709 23.3289 13.6081 22.4989 16.1151 17.8902 
15.9821 29.7248 32.8291 31.3236 30.4002 27.9692 27.5562 27.5475 27.5298 
27.784 27.5337 27.5376 27.5394 27.5428 27.8074 27.9242 27.862 27.8938 
29.3338 30.7911 31.4472 31.1071 31.6629 32.5827 32.7227 33.3242 33.3035 
34.3685 34.5701 30.7834 26.874 22.698 18.2577 13.5841 8.53185 0.290019 
10.1083 4.64425 13.9747 16.7622 4.09964 0.116379 14.5712 0.338408 6.57629 
0.783258 0.107832 6.89399 4.87541 9.45986 0.375138 4.84682 16.1067 4.42082 
16.2006 6.20525 6.91284 1.15317 0.116579 0.258981 6.65594 0.0830758 0.011763 
0.166152 0.106348 0.0452363 0.0962923 0.159502 0.17651 0.118402 0.0235552 0.0292125 
0.0341679 0.204671 0.252326 0.0598575 
