# vtk DataFile Version 4.2
vtk output
ASCII
DATASET POLYDATA
POINTS 9424 float
0.0596472 0 2.4 -0.442998 -0.0884026 2.4 -0.945201 -0.200632 2.4 
-1.4567 -0.262666 2.4 -1.96887 -0.318282 2.4 -2.48263 -0.354689 2.4 
-2.99787 -0.364602 2.4 -3.51241 -0.392574 2.4 -4.02378 -0.453969 2.4 
-4.51739 -0.599486 2.4 -4.97172 -0.840897 2.4 -5.35725 -1.18041 2.4 
-5.66042 -1.58958 2.4 0.248399 0.501601 2.4 0.756931 0.587156 2.4 
1.26411 0.683661 2.4 1.77 0.787359 2.4 2.28097 0.861165 2.4 
2.79708 0.883237 2.4 3.31104 0.93351 2.4 3.81805 1.03138 2.4 
4.30763 1.1941 2.4 4.76162 1.43942 2.4 5.18497 1.73465 2.4 
5.64408 1.83973 2.4 5.85965 2.27567 2.4 6.02749 2.76264 2.4 
6.14156 3.26625 2.4 6.22351 3.7762 2.4 6.28411 4.28917 2.4 
6.32016 4.80442 2.4 6.34742 5.32012 2.4 6.42642 5.83037 2.4 
6.51012 6.34028 2.4 6.3851 6.6149 2.4 5.13916 5.36084 2.4 
4.8791 5.57888 2.4 4.38115 5.54135 2.4 3.88115 5.46157 2.4 
3.39147 5.3355 2.4 2.92912 5.13033 2.4 2.52511 4.82848 2.4 
2.20542 4.43659 2.4 1.9332 4.01011 2.4 1.72603 3.54836 2.4 
1.5223 3.08543 2.4 1.31739 2.62287 2.4 1.17463 2.13775 2.4 
1.11263 1.6829 2.4 0.72598 1.36959 2.4 0.304251 1.09274 2.4 
-0.108771 0.862055 2.4 -0.581488 1.03403 2.4 -1.03834 1.24929 2.4 
-1.52664 1.36308 2.4 -2.0291 1.41478 2.4 -2.53505 1.42921 2.4 
-3.03697 1.49161 2.4 -3.52611 1.62031 2.4 -4.0058 1.78148 2.4 
-4.4591 2.00623 2.4 -4.89501 2.26333 2.4 -5.28011 2.58525 2.4 
-5.51504 3.02947 2.4 -5.65456 3.51556 2.4 -5.74455 4.01365 2.4 
-5.81776 4.5145 2.4 -5.85595 5.01921 2.4 -5.90134 5.52323 2.4 
-5.9976 6.01962 2.4 -5.96309 6.28691 2.4 0 1.70718 2.4 
0.28908 2.14604 2.4 0.407299 2.67029 2.4 0.56027 3.18635 2.4 
0.714866 3.7018 2.4 0.853786 4.22165 2.4 1.08368 4.70727 2.4 
1.42854 5.11841 2.4 1.85849 5.39151 2.4 6.90231 7.34769 2.4 
6.56475 6.9901 2.4 6.23204 6.78247 2.4 5.73998 6.72295 2.4 
5.23595 6.6761 2.4 4.73104 6.63488 2.4 4.22961 6.5622 2.4 
3.72548 6.51187 2.4 3.22101 6.46488 2.4 2.71985 6.3906 2.4 
2.22038 6.30551 2.4 1.71735 6.2455 2.4 1.21584 6.17518 2.4 
0.741234 6.00105 2.4 0.335235 5.70131 2.4 5.13097e-05 5.32221 2.4 
-0.106591 4.91002 2.4 -0.11765 4.40611 2.4 -0.118791 3.90063 2.4 
-0.0968662 3.40313 2.4 7.30278 7.94722 2.4 6.99543 7.99656 2.4 
6.49397 7.91184 2.4 5.99259 7.82746 2.4 5.49455 7.7242 2.4 
4.98855 7.67411 2.4 4.48049 7.64832 2.4 3.97323 7.60968 2.4 
3.46616 7.56857 2.4 2.95936 7.52428 2.4 2.4532 7.47328 2.4 
1.94755 7.41736 2.4 1.44245 7.35669 2.4 0.939804 7.27859 2.4 
0.444171 7.16457 2.4 -0.0338901 6.99688 2.4 -0.519461 7.1044 2.4 
-1.00953 7.23969 2.4 -1.50993 7.33089 2.4 -2.01402 7.39935 2.4 
-2.51927 7.45874 2.4 -3.02538 7.51031 2.4 -3.53221 7.55421 2.4 
-4.03927 7.59548 2.4 -4.5466 7.63303 2.4 -5.05465 7.65902 2.4 
-5.55971 7.71662 2.4 -6.05734 7.82188 2.4 -6.55701 7.91533 2.4 
-7.06028 7.9548 2.4 -7.24207 7.50793 2.4 8.77093 9.47907 2.4 
8.30418 9.3261 2.4 7.81555 9.20202 2.4 7.32043 9.1024 2.4 
6.83124 8.97632 2.4 6.33263 8.89719 2.4 5.8294 8.85209 2.4 
5.32686 8.7997 2.4 4.82387 8.75177 2.4 4.3204 8.70912 2.4 
3.81692 8.66663 2.4 3.31354 8.62294 2.4 2.81019 8.57881 2.4 
2.30709 8.53207 2.4 1.80408 8.48427 2.4 1.30128 8.43438 2.4 
0.799208 8.3776 2.4 0.29818 8.31244 2.4 -0.203124 8.26334 2.4 
-0.703155 8.33272 2.4 -1.20447 8.39577 2.4 -1.70677 8.45043 2.4 
-2.20955 8.50052 2.4 -2.71248 8.54915 2.4 -3.21575 8.59409 2.4 
-3.71909 8.63836 2.4 -4.22253 8.68128 2.4 -4.72605 8.72336 2.4 
-5.22922 8.76924 2.4 -5.73167 8.82258 2.4 -6.23496 8.86712 2.4 
-6.73548 8.9346 2.4 -7.22574 9.05618 2.4 -7.71804 9.16919 2.4 
-8.21259 9.26766 2.4 -8.69939 9.34733 2.4 -9.0755 9.6745 2.4 
15.1356 17.4996 2.4 14.9177 17.0476 2.4 14.6805 16.6055 2.4 
14.4389 16.1657 2.4 14.2088 15.7198 2.4 13.9844 15.2711 2.4 
13.7329 14.8379 2.4 13.4396 14.4311 2.4 13.1235 14.0413 2.4 
12.7952 13.662 2.4 12.4663 13.2831 2.4 12.1322 12.9089 2.4 
11.7877 12.5444 2.4 11.419 12.2044 2.4 11.0384 11.8776 2.4 
10.648 11.5626 2.4 10.2534 11.2527 2.4 9.84339 10.9639 2.4 
9.38886 10.7552 2.4 8.91311 10.596 2.4 8.43865 10.4327 2.4 
7.96278 10.274 2.4 7.4712 10.175 2.4 6.97437 10.1044 2.4 
6.47806 10.0304 2.4 5.9801 9.96862 2.4 5.48126 9.91413 2.4 
4.98221 9.86162 2.4 4.48296 9.81095 2.4 3.98356 9.76194 2.4 
3.48405 9.71395 2.4 2.98438 9.66767 2.4 2.48463 9.62228 2.4 
1.98481 9.57768 2.4 1.48485 9.53463 2.4 0.984891 9.49157 2.4 
0.484862 9.44937 2.4 -0.0151894 9.40792 2.4 -0.516076 9.43075 2.4 
-1.01608 9.47327 2.4 -1.51602 9.51656 2.4 -2.01594 9.56005 2.4 
-2.51572 9.60505 2.4 -3.01545 9.65064 2.4 -3.51511 9.69707 2.4 
-4.01461 9.74513 2.4 -4.51402 9.79416 2.4 -5.01326 9.84481 2.4 
-5.51233 9.8972 2.4 -6.01121 9.95131 2.4 -6.50907 10.0139 2.4 
-7.00532 10.0883 2.4 -7.50215 10.1588 2.4 -7.99361 10.2587 2.4 
-8.4694 10.4178 2.4 -8.94558 10.576 2.4 -9.41484 10.7531 2.4 
-9.87822 10.9615 2.4 -10.3386 11.0919 2.4 -10.7365 11.3936 2.4 
-11.1048 11.7343 2.4 -11.4669 12.0816 2.4 -11.8294 12.4286 2.4 
-12.1885 12.7791 2.4 -12.5411 13.1362 2.4 -12.896 13.4908 2.4 
-13.2382 13.8571 2.4 -13.4995 14.2742 2.4 -13.6617 14.7334 2.4 
-13.9163 15.1649 2.4 -14.1829 15.5899 2.4 -14.4179 16.0331 2.4 
-14.6409 16.4826 2.4 -14.88 16.9237 2.4 -15.1033 17.373 2.4 
14.714 18.9602 2.4 14.4469 18.5342 2.4 14.1991 18.0966 2.4 
13.9652 17.6515 2.4 13.7347 17.2046 2.4 13.5055 16.7569 2.4 
13.2767 16.3091 2.4 13.0332 15.8693 2.4 12.7676 15.4422 2.4 
12.5015 15.0156 2.4 12.2206 14.5986 2.4 11.9119 14.2017 2.4 
11.5907 13.8147 2.4 11.2613 13.4348 2.4 10.9099 13.0752 2.4 
10.5321 12.7435 2.4 10.1295 12.4423 2.4 9.71053 12.1643 2.4 
9.2777 11.9084 2.4 8.8206 11.6999 2.4 8.34323 11.542 2.4 
7.85876 11.4073 2.4 7.36836 11.2965 2.4 6.87308 11.2095 2.4 
6.37582 11.1345 2.4 5.8774 11.0677 2.4 5.37835 11.0057 2.4 
4.87891 10.9469 2.4 4.37914 10.8911 2.4 3.87908 10.8379 2.4 
3.37881 10.7867 2.4 2.87824 10.7385 2.4 2.37749 10.6923 2.4 
1.8765 10.6487 2.4 1.37529 10.6077 2.4 0.873915 10.5688 2.4 
0.372375 10.532 2.4 -0.129586 10.5054 2.4 -0.631582 10.5329 2.4 
-1.13309 10.5702 2.4 -1.63441 10.6098 2.4 -2.13553 10.6518 2.4 
-2.63642 10.6966 2.4 -3.13709 10.7436 2.4 -3.63752 10.7932 2.4 
-4.13769 10.8454 2.4 -4.63764 10.8997 2.4 -5.13726 10.9568 2.4 
-5.63654 11.0169 2.4 -6.13534 11.0809 2.4 -6.63332 11.1509 2.4 
-7.12977 11.231 2.4 -7.62335 11.3269 2.4 -8.11084 11.4501 2.4 
-8.59332 11.5918 2.4 -9.06531 11.7644 2.4 -9.51257 11.9938 2.4 
-9.94311 12.2535 2.4 -10.357 12.5388 2.4 -10.7484 12.8543 2.4 
-11.1129 13.2006 2.4 -11.4535 13.5705 2.4 -11.7801 13.9528 2.4 
-12.0988 14.3419 2.4 -12.3895 14.752 2.4 -12.6529 15.1804 2.4 
-12.9121 15.6113 2.4 -13.1687 16.0437 2.4 -13.3996 16.4904 2.4 
-13.6268 16.939 2.4 -13.8568 17.3862 2.4 -14.0853 17.8342 2.4 
-14.3237 18.277 2.4 -14.5789 18.7102 2.4 13.9634 19.6869 2.4 
13.6657 19.2808 2.4 13.3956 18.8558 2.4 13.1475 18.4176 2.4 
12.913 17.972 2.4 12.6851 17.5229 2.4 12.4561 17.0744 2.4 
12.2189 16.6302 2.4 11.9705 16.1922 2.4 11.7084 15.7622 2.4 
11.4312 15.3418 2.4 11.1358 14.934 2.4 10.8201 14.5417 2.4 
10.4837 14.1671 2.4 10.1213 13.8176 2.4 9.73247 13.4978 2.4 
9.31572 13.2154 2.4 8.87497 12.9722 2.4 8.41455 12.7687 2.4 
7.93958 12.6017 2.4 7.45411 12.4681 2.4 6.96245 12.3592 2.4 
6.46721 12.2681 2.4 5.9697 12.1901 2.4 5.47105 12.1197 2.4 
4.97165 12.0549 2.4 4.47175 11.994 2.4 3.97144 11.9366 2.4 
3.47082 11.882 2.4 2.96981 11.831 2.4 2.46851 11.7831 2.4 
1.96692 11.7382 2.4 1.46505 11.6966 2.4 0.962962 11.6577 2.4 
0.460706 11.6211 2.4 -0.0417664 11.5887 2.4 -0.544697 11.6097 2.4 
-1.04697 11.6462 2.4 -1.54906 11.685 2.4 -2.05091 11.7268 2.4 
-2.55249 11.7718 2.4 -3.05377 11.82 2.4 -3.55474 11.8713 2.4 
-4.05533 11.9262 2.4 -4.55561 11.9839 2.4 -5.05546 12.0452 2.4 
-5.55481 12.1104 2.4 -6.05336 12.1814 2.4 -6.5507 12.2605 2.4 
-7.0456 12.3535 2.4 -7.53685 12.4642 2.4 -8.02152 12.6007 2.4 
-8.49581 12.7697 2.4 -8.95527 12.9755 2.4 -9.39387 13.2226 2.4 
-9.80838 13.5082 2.4 -10.1948 13.8308 2.4 -10.5531 14.1845 2.4 
-10.8852 14.563 2.4 -11.1966 14.9587 2.4 -11.4876 15.3696 2.4 
-11.761 15.7925 2.4 -12.0202 16.2242 2.4 -12.2655 16.664 2.4 
-12.5004 17.1094 2.4 -12.7283 17.5585 2.4 -12.9561 18.0076 2.4 
-13.1912 18.453 2.4 -13.4409 18.8903 2.4 -13.7134 19.3136 2.4 
13.874 21.0132 2.4 13.5054 20.672 2.4 13.1578 20.3095 2.4 
12.8406 19.9201 2.4 12.5545 19.5071 2.4 12.2962 19.0763 2.4 
12.0609 18.6325 2.4 11.8355 18.1835 2.4 11.6113 17.7339 2.4 
11.3801 17.2879 2.4 11.1367 16.8484 2.4 10.8782 16.4177 2.4 
10.598 16.0007 2.4 10.2977 15.5981 2.4 9.97179 15.2159 2.4 
9.61842 14.859 2.4 9.2348 14.5348 2.4 8.82138 14.2498 2.4 
8.38218 14.0064 2.4 7.92333 13.8022 2.4 7.4486 13.6382 2.4 
6.96435 13.5046 2.4 6.4741 13.395 2.4 5.98012 13.3035 2.4 
5.48404 13.2242 2.4 4.98669 13.1532 2.4 4.48853 13.0882 2.4 
3.98976 13.0279 2.4 3.49058 12.9711 2.4 2.99097 12.9183 2.4 
2.491 12.8691 2.4 1.9907 12.8232 2.4 1.49013 12.7805 2.4 
0.989308 12.7408 2.4 0.488333 12.7031 2.4 -0.0128048 12.6679 2.4 
-0.514539 12.6872 2.4 -1.01554 12.7246 2.4 -1.51638 12.764 2.4 
-2.01697 12.8065 2.4 -2.51728 12.8523 2.4 -3.01726 12.9015 2.4 
-3.51687 12.9542 2.4 -4.01606 13.0109 2.4 -4.51483 13.0711 2.4 
-5.013 13.1361 2.4 -5.51037 13.207 2.4 -6.00645 13.2863 2.4 
-6.50046 13.3776 2.4 -6.99077 13.487 2.4 -7.47509 13.6204 2.4 
-7.94996 13.784 2.4 -8.409 13.9877 2.4 -8.84844 14.2307 2.4 
-9.26167 14.516 2.4 -9.64473 14.8408 2.4 -9.99698 15.1988 2.4 
-10.3214 15.5822 2.4 -10.6202 15.986 2.4 -10.8989 16.404 2.4 
-11.1563 16.8354 2.4 -11.3988 17.2754 2.4 -11.6293 17.7217 2.4 
-11.8531 18.1715 2.4 -12.0783 18.6206 2.4 -12.3134 19.0646 2.4 
-12.5713 19.4956 2.4 -12.8569 19.9089 2.4 -13.1735 20.2988 2.4 
-13.5203 20.6621 2.4 -13.8879 21.0044 2.4 13.6289 21.9581 2.4 
13.2097 21.6752 2.4 12.8093 21.3664 2.4 12.4316 21.0301 2.4 
12.0857 20.6613 2.4 11.7782 20.2599 2.4 11.5083 19.8322 2.4 
11.2659 19.3883 2.4 11.0399 18.9358 2.4 10.8197 18.4804 2.4 
10.5956 18.0269 2.4 10.3563 17.5813 2.4 10.0974 17.1468 2.4 
9.81378 16.728 2.4 9.50284 16.3292 2.4 9.15881 15.9586 2.4 
8.78357 15.6198 2.4 8.37524 15.3216 2.4 7.93909 15.0658 2.4 
[...]
CELL_DATA 277
FIELD FieldData 2
CellId 1 277 int
20 0 29 23 1 4 8 50 166 
167 168 169 170 217 171 215 216 214 
213 172 173 174 175 176 177 184 192 
193 194 195 197 198 201 210 202 209 
205 206 30 31 183 182 181 5 9 
180 53 179 111 112 113 114 178 115 
52 116 51 133 137 134 136 135 117 
118 120 121 122 123 125 144 130 143 
129 131 142 128 127 141 132 148 149 
152 162 153 155 126 157 156 160 2 
3 196 199 200 211 203 208 204 207 
21 28 27 26 188 14 187 12 186 
7 185 11 45 191 218 219 221 46 
190 222 189 223 47 49 225 48 226 
250 249 220 248 247 227 228 229 230 
231 234 269 240 232 241 268 242 246 
243 244 267 266 233 252 264 256 255 
253 245 254 257 265 259 258 261 260 
270 262 263 32 35 38 15 6 10 
56 57 58 59 60 61 106 63 110 
109 108 107 64 65 66 67 69 78 
74 83 84 85 86 88 87 89 90 
92 91 94 95 93 96 100 101 98 
97 99 37 16 39 40 41 82 17 
81 80 79 72 62 70 55 71 73 
54 119 138 145 146 139 140 124 147 
163 150 151 161 154 158 159 33 43 
42 103 102 75 76 104 44 68 105 
274 77 273 224 239 238 271 236 237 
272 235 22 25 24 212 13 251 34 
36 276 275 18 19 164 165 
Length 1 277 float
13.1569 10.5516 17.1905 4.26067 9.38813 15.0184 18.1514 37.0812 36.7067 
34.7444 35.1631 34.3916 34.5105 30.7409 33.5748 17.8398 20.8928 15.0945 
16.0425 28.3205 28.183 29.0475 29.404 29.3085 35.073 56.8631 47.5227 
44.0048 40.4741 36.8852 16.7267 15.1691 13.1334 2.94782 8.69512 4.41191 
3.64601 1.5113 6.99039 3.92356 16.4252 19.6513 19.2346 17.0551 19.7379 
19.881 38.3853 19.1992 37.6838 35.088 34.8743 35.0591 0.233647 34.2744 
2.60504 34.2165 0.664655 29.2065 18.394 21.3681 15.4602 16.0613 28.0135 
28.1318 28.6505 28.9624 29.8968 31.5332 49.0605 48.4748 25.0297 44.8934 
19.9079 19.0046 41.4473 19.4878 11.4842 33.1032 2.97534 17.273 15.5164 
13.7102 3.33462 9.57227 7.48807 0.334919 3.36024 1.87398 0.434429 4.01097 
7.05232 16.408 14.6371 12.2341 1.98984 8.15585 3.39436 3.04103 0.73149 
5.32259 6.56019 4.66342 2.483 15.6259 8.80245 19.6268 8.59901 19.2301 
18.5549 19.7273 22.4229 37.4617 16.1457 35.4428 34.6589 34.7905 4.06391 
3.7824 34.351 0.862522 34.4919 1.78706 0.222459 29.7807 0.218965 33.2482 
17.3312 16.0897 0.100418 16.6814 18.381 28.6515 28.8141 29.1381 29.0488 
30.0561 41.0617 58.4027 46.4645 0.126471 21.3921 42.9313 20.3378 17.305 
19.8536 11.7201 39.3937 35.7318 0.138574 16.3519 15.8514 5.1507 13.8114 
12.5784 1.75418 11.5889 10.2206 1.43077 8.10642 7.02832 2.82779 3.73072 
0.251638 2.96797 0.296171 15.347 4.67513 7.77125 7.62827 16.6112 19.9228 
37.1674 35.9605 35.0729 35.0631 34.6198 34.7665 29.7687 33.8204 17.3214 
16.082 16.6713 18.3782 28.3603 28.8582 29.1404 28.8958 30.0854 43.4484 
58.265 46.5466 43.0198 39.4788 35.8408 16.4678 15.9436 14.5868 13.9886 
4.01047 11.8129 10.5002 1.45228 8.06963 7.66915 3.81409 2.94438 3.06942 
2.50274 0.542182 4.55318 7.03398 6.10102 2.66686 2.19513 21.3326 7.10317 
20.2615 19.7895 11.4185 17.265 0.031666 0.139716 3.25684 0.486316 0.730711 
0.833216 0.241131 24.7588 19.714 19.4524 19.298 10.7743 3.37992 17.1568 
0.0910682 15.1418 12.968 10.7059 0.709649 6.74729 1.96275 7.69566 5.16589 
3.7392 21.563 17.5811 19.8007 11.5711 19.7068 5.41027 0.196077 1.4158 
2.26094 1.08565 0.136751 0.0539053 21.3808 20.3666 18.9088 11.5384 19.4004 
1.17408 1.15786 0.309131 0.105511 0.138689 0.128975 0.0579036 0.0248954 0.0196989 
0.123123 0.105148 0.0351812 0.117839 0.246038 0.189084 0.0252433 
