# vtk DataFile Version 4.2
vtk output
ASCII
DATASET POLYDATA
POINTS 25390 float
35.5122 8.68778 1.40833 35.4602 8.68276 1.40833 35.4176 8.70795 1.40833 
35.3706 8.72505 1.40833 35.3215 8.7345 1.40833 35.2729 8.74603 1.40833 
35.2239 8.75613 1.40833 35.1747 8.76514 1.40833 35.1259 8.77608 1.40833 
35.0766 8.78427 1.40833 35.0277 8.79486 1.40833 34.9786 8.80413 1.40833 
34.9295 8.81374 1.40833 34.8806 8.82421 1.40833 34.8315 8.8337 1.40833 
34.7824 8.8433 1.40833 34.7334 8.85318 1.40833 34.6842 8.86226 1.40833 
34.6352 8.87231 1.40833 34.586 8.88129 1.40833 34.537 8.89133 1.40833 
34.4879 8.90068 1.40833 34.4388 8.9103 1.40833 34.3898 8.92059 1.40833 
34.3409 8.93075 1.40833 34.2919 8.94068 1.40833 34.243 8.95147 1.40833 
34.194 8.96134 1.40833 34.1453 8.97272 1.40833 34.0964 8.98306 1.40833 
34.0477 8.99447 1.40833 33.999 9.0062 1.40833 33.9506 9.01866 1.40833 
33.9021 9.03082 1.40833 33.8542 9.04519 1.40833 33.8059 9.0582 1.40833 
33.7584 9.07375 1.40833 33.7109 9.08956 1.40833 33.6639 9.10669 1.40833 
33.617 9.12399 1.40833 33.5711 9.14376 1.40833 33.5254 9.16418 1.40833 
33.4803 9.18562 1.40833 33.4359 9.20867 1.40833 33.3908 9.23032 1.40833 
33.3464 9.25329 1.40833 33.3022 9.27665 1.40833 33.2579 9.30004 1.40833 
33.2131 9.32215 1.40833 33.1676 9.34303 1.40833 33.1225 9.36455 1.40833 
33.0771 9.38557 1.40833 33.0312 9.40536 1.40833 32.9849 9.42439 1.40833 
32.9384 9.44278 1.40833 32.8919 9.46122 1.40833 32.8448 9.47806 1.40833 
32.7978 9.4951 1.40833 32.7505 9.51122 1.40833 32.7032 9.52753 1.40833 
32.6556 9.54277 1.40833 32.608 9.55815 1.40833 32.5602 9.57293 1.40833 
32.5123 9.58736 1.40833 32.4643 9.60148 1.40833 32.4164 9.61578 1.40833 
32.3684 9.62974 1.40833 32.3203 9.64353 1.40833 32.2722 9.65712 1.40833 
32.224 9.67046 1.40833 32.1757 9.68362 1.40833 32.1274 9.69667 1.40833 
32.0792 9.7099 1.40833 32.0309 9.72294 1.40833 31.9826 9.73602 1.40833 
31.9343 9.74902 1.40833 31.886 9.76192 1.40833 31.8377 9.77495 1.40833 
31.7894 9.78777 1.40833 31.7411 9.80067 1.40833 31.6928 9.81372 1.40833 
31.6445 9.82679 1.40833 31.5962 9.83981 1.40833 31.548 9.85309 1.40833 
31.4997 9.86619 1.40833 31.4515 9.87955 1.40833 31.4033 9.89287 1.40833 
31.3552 9.90631 1.40833 31.307 9.91979 1.40833 31.2589 9.93354 1.40833 
31.2108 9.94716 1.40833 31.1628 9.96109 1.40833 31.1147 9.9751 1.40833 
31.0668 9.98919 1.40833 31.0188 10.0034 1.40833 30.9709 10.0177 1.40833 
30.923 10.032 1.40833 30.8751 10.0464 1.40833 30.8272 10.0609 1.40833 
30.7793 10.0754 1.40833 30.7315 10.0899 1.40833 30.6836 10.1045 1.40833 
30.6358 10.1191 1.40833 30.5879 10.1335 1.40833 30.54 10.148 1.40833 
30.4922 10.1626 1.40833 30.4442 10.1768 1.40833 30.3963 10.1912 1.40833 
30.3484 10.2054 1.40833 30.3004 10.2195 1.40833 30.2524 10.2334 1.40833 
30.2043 10.2474 1.40833 30.1562 10.2611 1.40833 30.1081 10.2748 1.40833 
30.06 10.2882 1.40833 30.0117 10.3015 1.40833 29.9635 10.3146 1.40833 
29.9152 10.3277 1.40833 29.8668 10.3404 1.40833 29.8185 10.3532 1.40833 
29.7701 10.3657 1.40833 29.7216 10.3781 1.40833 29.6731 10.3905 1.40833 
29.6246 10.4025 1.40833 29.5761 10.4145 1.40833 29.5275 10.4265 1.40833 
29.4789 10.4382 1.40833 29.4302 10.4498 1.40833 29.3815 10.4613 1.40833 
29.3328 10.4726 1.40833 29.2841 10.4838 1.40833 29.2353 10.4948 1.40833 
29.1865 10.5059 1.40833 29.1377 10.5168 1.40833 29.0889 10.5275 1.40833 
29.04 10.5382 1.40833 28.9911 10.5487 1.40833 28.9422 10.5591 1.40833 
28.8933 10.5695 1.40833 28.8443 10.5797 1.40833 28.7953 10.5899 1.40833 
28.7463 10.5998 1.40833 28.6973 10.6099 1.40833 28.6483 10.6197 1.40833 
28.5993 10.6296 1.40833 28.5502 10.6393 1.40833 28.5011 10.649 1.40833 
28.452 10.6585 1.40833 28.4029 10.668 1.40833 28.3538 10.6775 1.40833 
28.3047 10.6868 1.40833 28.2555 10.696 1.40833 28.2064 10.7053 1.40833 
28.1572 10.7145 1.40833 28.108 10.7236 1.40833 28.0589 10.7327 1.40833 
28.0097 10.7417 1.40833 27.9604 10.7506 1.40833 27.9112 10.7595 1.40833 
27.862 10.7683 1.40833 27.8127 10.777 1.40833 27.7635 10.7857 1.40833 
27.7142 10.7943 1.40833 27.6649 10.8028 1.40833 27.6157 10.8114 1.40833 
27.5664 10.8199 1.40833 27.5171 10.8284 1.40833 27.4678 10.8368 1.40833 
27.4185 10.8452 1.40833 27.3692 10.8536 1.40833 27.3199 10.8619 1.40833 
27.2705 10.8701 1.40833 27.2212 10.8783 1.40833 27.1718 10.8864 1.40833 
27.1225 10.8945 1.40833 27.0731 10.9026 1.40833 27.0238 10.9106 1.40833 
26.9744 10.9187 1.40833 26.925 10.9266 1.40833 26.8756 10.9345 1.40833 
26.8263 10.9424 1.40833 26.7769 10.9503 1.40833 26.7275 10.9581 1.40833 
26.6781 10.9659 1.40833 26.6287 10.9737 1.40833 26.5792 10.9814 1.40833 
26.5298 10.9891 1.40833 26.4804 10.9967 1.40833 26.431 11.0044 1.40833 
26.3815 11.012 1.40833 26.3321 11.0196 1.40833 26.2827 11.0272 1.40833 
26.2332 11.0347 1.40833 26.1838 11.0421 1.40833 26.1343 11.0496 1.40833 
26.0849 11.057 1.40833 26.0354 11.0644 1.40833 25.9859 11.0718 1.40833 
25.9365 11.0791 1.40833 25.887 11.0864 1.40833 25.8375 11.0937 1.40833 
25.788 11.101 1.40833 25.7385 11.1081 1.40833 25.689 11.1154 1.40833 
25.6395 11.1225 1.40833 25.59 11.1297 1.40833 25.5405 11.1368 1.40833 
25.491 11.1439 1.40833 25.4415 11.151 1.40833 25.392 11.158 1.40833 
25.3425 11.165 1.40833 25.2929 11.172 1.40833 25.2434 11.1789 1.40833 
25.1939 11.1859 1.40833 25.1443 11.1928 1.40833 25.0948 11.1997 1.40833 
25.0453 11.2065 1.40833 24.9957 11.2134 1.40833 24.9462 11.2202 1.40833 
24.8966 11.227 1.40833 24.8471 11.2337 1.40833 24.7975 11.2405 1.40833 
24.7479 11.2472 1.40833 24.6984 11.2539 1.40833 24.6488 11.2605 1.40833 
24.5992 11.2672 1.40833 24.5497 11.2738 1.40833 24.5001 11.2803 1.40833 
24.4505 11.2869 1.40833 24.4009 11.2935 1.40833 24.3513 11.3 1.40833 
24.3018 11.3065 1.40833 24.2522 11.3129 1.40833 24.2026 11.3194 1.40833 
24.153 11.3258 1.40833 24.1034 11.3322 1.40833 24.0537 11.3385 1.40833 
24.0041 11.3449 1.40833 23.9545 11.3512 1.40833 23.9049 11.3575 1.40833 
23.8553 11.3638 1.40833 23.8057 11.37 1.40833 23.756 11.3762 1.40833 
23.7064 11.3824 1.40833 23.6568 11.3886 1.40833 23.6071 11.3947 1.40833 
23.5575 11.4008 1.40833 23.5079 11.4069 1.40833 23.4582 11.4129 1.40833 
23.4086 11.419 1.40833 23.3589 11.425 1.40833 23.3093 11.431 1.40833 
23.2596 11.437 1.40833 23.2099 11.4429 1.40833 23.1603 11.4488 1.40833 
23.1106 11.4547 1.40833 23.0609 11.4605 1.40833 23.0113 11.4664 1.40833 
22.9616 11.4722 1.40833 22.9119 11.4779 1.40833 22.8622 11.4837 1.40833 
22.8126 11.4894 1.40833 22.7629 11.4952 1.40833 22.7132 11.5008 1.40833 
22.6635 11.5065 1.40833 22.6138 11.5121 1.40833 22.5641 11.5177 1.40833 
22.5144 11.5233 1.40833 22.4647 11.5288 1.40833 22.415 11.5343 1.40833 
22.3653 11.5398 1.40833 22.3155 11.5453 1.40833 22.2658 11.5507 1.40833 
22.2161 11.5561 1.40833 22.1664 11.5615 1.40833 22.1167 11.5669 1.40833 
22.0669 11.5722 1.40833 22.0172 11.5775 1.40833 21.9675 11.5828 1.40833 
21.9177 11.5881 1.40833 21.868 11.5933 1.40833 21.8182 11.5985 1.40833 
21.7685 11.6036 1.40833 21.7187 11.6088 1.40833 21.669 11.6139 1.40833 
21.6192 11.619 1.40833 21.5695 11.6241 1.40833 21.5197 11.6292 1.40833 
21.47 11.6342 1.40833 21.4202 11.6391 1.40833 21.3704 11.6441 1.40833 
21.3207 11.649 1.40833 21.2709 11.6539 1.40833 21.2211 11.6588 1.40833 
21.1713 11.6636 1.40833 21.1216 11.6685 1.40833 21.0718 11.6733 1.40833 
21.022 11.678 1.40833 20.9722 11.6828 1.40833 20.9224 11.6875 1.40833 
20.8726 11.6922 1.40833 20.8228 11.6968 1.40833 20.773 11.7015 1.40833 
20.7232 11.7061 1.40833 20.6734 11.7106 1.40833 20.6236 11.7152 1.40833 
20.5738 11.7197 1.40833 20.524 11.7242 1.40833 20.4742 11.7286 1.40833 
20.4244 11.7331 1.40833 20.3745 11.7374 1.40833 20.3247 11.7418 1.40833 
20.2749 11.7462 1.40833 20.2251 11.7505 1.40833 20.1752 11.7548 1.40833 
20.1254 11.759 1.40833 20.0756 11.7633 1.40833 20.0257 11.7674 1.40833 
19.9759 11.7716 1.40833 19.926 11.7758 1.40833 19.8762 11.7799 1.40833 
19.8263 11.7839 1.40833 19.7765 11.788 1.40833 19.7266 11.792 1.40833 
19.6768 11.796 1.40833 19.6269 11.8 1.40833 19.5771 11.8039 1.40833 
19.5272 11.8078 1.40833 19.4774 11.8117 1.40833 19.4275 11.8156 1.40833 
19.3776 11.8193 1.40833 19.3277 11.8231 1.40833 19.2779 11.8269 1.40833 
19.228 11.8306 1.40833 19.1781 11.8343 1.40833 19.1282 11.8379 1.40833 
19.0784 11.8415 1.40833 19.0285 11.8451 1.40833 18.9786 11.8487 1.40833 
18.9287 11.8522 1.40833 18.8788 11.8557 1.40833 18.8289 11.8591 1.40833 
18.779 11.8626 1.40833 18.7291 11.866 1.40833 18.6792 11.8694 1.40833 
18.6293 11.8727 1.40833 18.5794 11.876 1.40833 18.5295 11.8793 1.40833 
18.4796 11.8825 1.40833 18.4297 11.8857 1.40833 18.3798 11.8889 1.40833 
18.3299 11.8921 1.40833 18.2799 11.8952 1.40833 18.23 11.8983 1.40833 
18.1801 11.9013 1.40833 18.1302 11.9044 1.40833 18.0803 11.9073 1.40833 
18.0303 11.9103 1.40833 17.9804 11.9132 1.40833 17.9305 11.9161 1.40833 
17.8805 11.9189 1.40833 17.8306 11.9218 1.40833 17.7807 11.9245 1.40833 
17.7307 11.9273 1.40833 17.6808 11.93 1.40833 17.6308 11.9327 1.40833 
17.5809 11.9354 1.40833 17.531 11.938 1.40833 17.481 11.9406 1.40833 
17.4311 11.9432 1.40833 17.3811 11.9457 1.40833 17.3312 11.9481 1.40833 
17.2812 11.9506 1.40833 17.2313 11.9529 1.40833 17.1813 11.9553 1.40833 
17.1313 11.9576 1.40833 17.0814 11.96 1.40833 17.0314 11.9622 1.40833 
16.9814 11.9645 1.40833 16.9315 11.9666 1.40833 16.8815 11.9688 1.40833 
16.8315 11.9709 1.40833 16.7816 11.973 1.40833 16.7316 11.975 1.40833 
16.6816 11.9771 1.40833 16.6317 11.979 1.40833 16.5817 11.9809 1.40833 
16.5317 11.9827 1.40833 16.4817 11.9846 1.40833 16.4317 11.9864 1.40833 
16.3818 11.9882 1.40833 16.3318 11.9899 1.40833 16.2818 11.9916 1.40833 
16.2318 11.9932 1.40833 16.1818 11.9948 1.40833 16.1318 11.9964 1.40833 
16.0818 11.998 1.40833 16.0318 11.9994 1.40833 15.9818 12.0008 1.40833 
15.9319 12.0023 1.40833 15.8819 12.0036 1.40833 15.8319 12.005 1.40833 
15.7819 12.0062 1.40833 15.7319 12.0075 1.40833 15.6819 12.0086 1.40833 
15.6319 12.0098 1.40833 15.5819 12.0108 1.40833 15.5319 12.0119 1.40833 
15.4819 12.0128 1.40833 15.4318 12.0138 1.40833 15.3818 12.0147 1.40833 
[...]
CELL_DATA 62
FIELD FieldData 2
CellId 1 62 int
37 38 39 8 50 14 11 13 10 
9 17 18 15 40 60 61 12 16 
58 59 49 48 4 6 3 7 1 
0 36 43 45 44 5 2 47 46 
55 56 42 26 53 51 22 24 21 
25 19 52 41 23 20 54 32 29 
31 28 27 35 33 57 30 34 
Length 1 62 float
71.9229 76.4441 80.0262 81.9276 1.58959 28.3861 31.0833 0.40799 27.7377 
32.3657 1.1035 4.25033 21.8025 22.7669 5.5556 0.801832 0.0173335 0.0342388 
0.0610683 0.00880632 1.58959 28.3861 31.0833 0.40799 27.7377 32.3657 1.1035 
4.25033 21.8025 22.7669 5.5556 0.801832 0.0173335 0.0342388 0.0610683 0.00880632 
71.9229 76.4441 80.0262 81.9276 1.58959 28.3861 31.0833 0.40799 27.7377 
32.3657 1.1035 21.8025 0.801832 0.0173335 0.0342388 1.58959 28.3861 31.0833 
0.40799 27.7377 32.3657 1.1035 21.8025 0.801832 0.0173335 0.0342388 
